n -t * -s 0  -x 25 -y 62 -Z 0 -z 4  -v circle -c green
n -t * -s 1  -x 75 -y 62 -Z 0 -z 4  -v circle -c green
n -t * -s 2  -x 125 -y 62 -Z 0 -z 4  -v circle -c green
n -t * -s 3  -x 175 -y 62 -Z 0 -z 4  -v circle -c green
n -t * -s 4  -x 225 -y 62 -Z 0 -z 4  -v circle -c green
n -t * -s 5  -x 275 -y 62 -Z 0 -z 4  -v circle -c green
n -t * -s 6  -x 325 -y 62 -Z 0 -z 4  -v circle -c green
n -t * -s 7  -x 375 -y 62 -Z 0 -z 4  -v circle -c green
n -t * -s 8  -x 425 -y 62 -Z 0 -z 4  -v circle -c green
n -t * -s 9  -x 475 -y 62 -Z 0 -z 4  -v circle -c green
n -t * -s 10  -x 25 -y 187 -Z 0 -z 4  -v circle -c green
n -t * -s 11  -x 75 -y 187 -Z 0 -z 4  -v circle -c green
n -t * -s 12  -x 125 -y 187 -Z 0 -z 4  -v circle -c green
n -t * -s 13  -x 175 -y 187 -Z 0 -z 4  -v circle -c green
n -t * -s 14  -x 225 -y 187 -Z 0 -z 4  -v circle -c green
n -t * -s 15  -x 275 -y 187 -Z 0 -z 4  -v circle -c green
n -t * -s 16  -x 325 -y 187 -Z 0 -z 4  -v circle -c green
n -t * -s 17  -x 375 -y 187 -Z 0 -z 4  -v circle -c green
n -t * -s 18  -x 425 -y 187 -Z 0 -z 4  -v circle -c green
n -t * -s 19  -x 475 -y 187 -Z 0 -z 4  -v circle -c green
n -t * -s 20  -x 25 -y 312 -Z 0 -z 4  -v circle -c green
n -t * -s 21  -x 75 -y 312 -Z 0 -z 4  -v circle -c green
n -t * -s 22  -x 125 -y 312 -Z 0 -z 4  -v circle -c green
n -t * -s 23  -x 175 -y 312 -Z 0 -z 4  -v circle -c green
n -t * -s 24  -x 225 -y 312 -Z 0 -z 4  -v circle -c green
n -t * -s 25  -x 275 -y 312 -Z 0 -z 4  -v circle -c green
n -t * -s 26  -x 325 -y 312 -Z 0 -z 4  -v circle -c green
n -t * -s 27  -x 375 -y 312 -Z 0 -z 4  -v circle -c green
n -t * -s 28  -x 425 -y 312 -Z 0 -z 4  -v circle -c green
n -t * -s 29  -x 475 -y 312 -Z 0 -z 4  -v circle -c green
n -t * -s 30  -x 25 -y 437 -Z 0 -z 4  -v circle -c green
n -t * -s 31  -x 75 -y 437 -Z 0 -z 4  -v circle -c green
n -t * -s 32  -x 125 -y 437 -Z 0 -z 4  -v circle -c green
n -t * -s 33  -x 175 -y 437 -Z 0 -z 4  -v circle -c green
n -t * -s 34  -x 225 -y 437 -Z 0 -z 4  -v circle -c green
n -t * -s 35  -x 275 -y 437 -Z 0 -z 4  -v circle -c green
n -t * -s 36  -x 325 -y 437 -Z 0 -z 4  -v circle -c green
n -t * -s 37  -x 375 -y 437 -Z 0 -z 4  -v circle -c green
n -t * -s 38  -x 425 -y 437 -Z 0 -z 4  -v circle -c green
n -t * -s 39  -x 475 -y 437 -Z 0 -z 4  -v circle -c green
V -t * -v 1.0a5 -a 0
W -t * -x 500 -y 500
A -t * -n 1 -p 0 -o 0x7fffffff -c 30 -a 1
A -t * -h 1 -m 1073741823 -s 0
c -t * -i 17 -n red
c -t * -i 0 -n blue
c -t * -i 18 -n blue
c -t * -i 1 -n red
c -t * -i 20 -n blue
c -t * -i 19 -n red
c -t * -i 2 -n blue
c -t * -i 21 -n red
c -t * -i 3 -n red
c -t * -i 22 -n blue
c -t * -i 4 -n blue
c -t * -i 23 -n red
c -t * -i 5 -n red
c -t * -i 24 -n blue
c -t * -i 6 -n blue
c -t * -i 25 -n red
c -t * -i 7 -n red
c -t * -i 26 -n blue
c -t * -i 8 -n blue
c -t * -i 27 -n red
c -t * -i 9 -n red
c -t * -i 10 -n blue
c -t * -i 28 -n blue
c -t * -i 11 -n red
c -t * -i 29 -n red
c -t * -i 12 -n blue
c -t * -i 13 -n red
c -t * -i 14 -n blue
c -t * -i 15 -n red
c -t * -i 16 -n blue
+ -t 0.030311795 -s 4 -d -1 -p message -e 90 -c 2 -a 0 -i 0 -k MAC 
- -t 0.030311795 -s 4 -d -1 -p message -e 90 -c 2 -a 0 -i 0 -k MAC
h -t 0.030311795 -s 4 -d -1 -p message -e 90 -c 2 -a 0 -i 0 -k MAC
r -t 0.031031962 -s 3 -d -1 -p message -e 32 -c 2 -a 0 -i 0 -k MAC
r -t 0.031031962 -s 5 -d -1 -p message -e 32 -c 2 -a 0 -i 0 -k MAC
r -t 0.031032128 -s 2 -d -1 -p message -e 32 -c 2 -a 0 -i 0 -k MAC
r -t 0.031032128 -s 6 -d -1 -p message -e 32 -c 2 -a 0 -i 0 -k MAC
r -t 0.031032212 -s 14 -d -1 -p message -e 32 -c 2 -a 0 -i 0 -k MAC
r -t 0.031032244 -s 13 -d -1 -p message -e 32 -c 2 -a 0 -i 0 -k MAC
r -t 0.031032244 -s 15 -d -1 -p message -e 32 -c 2 -a 0 -i 0 -k MAC
r -t 0.031032295 -s 1 -d -1 -p message -e 32 -c 2 -a 0 -i 0 -k MAC
r -t 0.031032295 -s 7 -d -1 -p message -e 32 -c 2 -a 0 -i 0 -k MAC
r -t 0.031032329 -s 12 -d -1 -p message -e 32 -c 2 -a 0 -i 0 -k MAC
r -t 0.031032329 -s 16 -d -1 -p message -e 32 -c 2 -a 0 -i 0 -k MAC
r -t 0.031032446 -s 11 -d -1 -p message -e 32 -c 2 -a 0 -i 0 -k MAC
r -t 0.031032446 -s 17 -d -1 -p message -e 32 -c 2 -a 0 -i 0 -k MAC
r -t 0.031032462 -s 0 -d -1 -p message -e 32 -c 2 -a 0 -i 0 -k MAC
r -t 0.031032462 -s 8 -d -1 -p message -e 32 -c 2 -a 0 -i 0 -k MAC
r -t 0.031032581 -s 10 -d -1 -p message -e 32 -c 2 -a 0 -i 0 -k MAC
r -t 0.031032581 -s 18 -d -1 -p message -e 32 -c 2 -a 0 -i 0 -k MAC
r -t 0.031032628 -s 24 -d -1 -p message -e 32 -c 2 -a 0 -i 0 -k MAC
r -t 0.031032628 -s 9 -d -1 -p message -e 32 -c 2 -a 0 -i 0 -k MAC
+ -t 0.063327695 -s 16 -d -1 -p message -e 90 -c 2 -a 0 -i 1 -k MAC 
- -t 0.063327695 -s 16 -d -1 -p message -e 90 -c 2 -a 0 -i 1 -k MAC
h -t 0.063327695 -s 16 -d -1 -p message -e 90 -c 2 -a 0 -i 1 -k MAC
r -t 0.064047862 -s 15 -d -1 -p message -e 32 -c 2 -a 0 -i 1 -k MAC
r -t 0.064047862 -s 17 -d -1 -p message -e 32 -c 2 -a 0 -i 1 -k MAC
r -t 0.064048029 -s 14 -d -1 -p message -e 32 -c 2 -a 0 -i 1 -k MAC
r -t 0.064048029 -s 18 -d -1 -p message -e 32 -c 2 -a 0 -i 1 -k MAC
r -t 0.064048112 -s 6 -d -1 -p message -e 32 -c 2 -a 0 -i 1 -k MAC
r -t 0.064048112 -s 26 -d -1 -p message -e 32 -c 2 -a 0 -i 1 -k MAC
r -t 0.064048144 -s 25 -d -1 -p message -e 32 -c 2 -a 0 -i 1 -k MAC
r -t 0.064048144 -s 5 -d -1 -p message -e 32 -c 2 -a 0 -i 1 -k MAC
r -t 0.064048144 -s 7 -d -1 -p message -e 32 -c 2 -a 0 -i 1 -k MAC
r -t 0.064048144 -s 27 -d -1 -p message -e 32 -c 2 -a 0 -i 1 -k MAC
r -t 0.064048195 -s 13 -d -1 -p message -e 32 -c 2 -a 0 -i 1 -k MAC
r -t 0.064048195 -s 19 -d -1 -p message -e 32 -c 2 -a 0 -i 1 -k MAC
r -t 0.064048229 -s 24 -d -1 -p message -e 32 -c 2 -a 0 -i 1 -k MAC
r -t 0.064048229 -s 4 -d -1 -p message -e 32 -c 2 -a 0 -i 1 -k MAC
r -t 0.064048229 -s 8 -d -1 -p message -e 32 -c 2 -a 0 -i 1 -k MAC
r -t 0.064048229 -s 28 -d -1 -p message -e 32 -c 2 -a 0 -i 1 -k MAC
r -t 0.064048346 -s 23 -d -1 -p message -e 32 -c 2 -a 0 -i 1 -k MAC
r -t 0.064048346 -s 3 -d -1 -p message -e 32 -c 2 -a 0 -i 1 -k MAC
r -t 0.064048346 -s 9 -d -1 -p message -e 32 -c 2 -a 0 -i 1 -k MAC
r -t 0.064048346 -s 29 -d -1 -p message -e 32 -c 2 -a 0 -i 1 -k MAC
r -t 0.064048362 -s 12 -d -1 -p message -e 32 -c 2 -a 0 -i 1 -k MAC
r -t 0.064048481 -s 22 -d -1 -p message -e 32 -c 2 -a 0 -i 1 -k MAC
r -t 0.064048481 -s 2 -d -1 -p message -e 32 -c 2 -a 0 -i 1 -k MAC
r -t 0.064048529 -s 11 -d -1 -p message -e 32 -c 2 -a 0 -i 1 -k MAC
r -t 0.064048529 -s 36 -d -1 -p message -e 32 -c 2 -a 0 -i 1 -k MAC
+ -t 0.106383040 -s 28 -d -1 -p message -e 90 -c 2 -a 0 -i 2 -k MAC 
- -t 0.106383040 -s 28 -d -1 -p message -e 90 -c 2 -a 0 -i 2 -k MAC
h -t 0.106383040 -s 28 -d -1 -p message -e 90 -c 2 -a 0 -i 2 -k MAC
r -t 0.107103207 -s 27 -d -1 -p message -e 32 -c 2 -a 0 -i 2 -k MAC
r -t 0.107103207 -s 29 -d -1 -p message -e 32 -c 2 -a 0 -i 2 -k MAC
r -t 0.107103373 -s 26 -d -1 -p message -e 32 -c 2 -a 0 -i 2 -k MAC
r -t 0.107103457 -s 18 -d -1 -p message -e 32 -c 2 -a 0 -i 2 -k MAC
r -t 0.107103457 -s 38 -d -1 -p message -e 32 -c 2 -a 0 -i 2 -k MAC
r -t 0.107103489 -s 37 -d -1 -p message -e 32 -c 2 -a 0 -i 2 -k MAC
r -t 0.107103489 -s 17 -d -1 -p message -e 32 -c 2 -a 0 -i 2 -k MAC
r -t 0.107103489 -s 19 -d -1 -p message -e 32 -c 2 -a 0 -i 2 -k MAC
r -t 0.107103489 -s 39 -d -1 -p message -e 32 -c 2 -a 0 -i 2 -k MAC
r -t 0.107103540 -s 25 -d -1 -p message -e 32 -c 2 -a 0 -i 2 -k MAC
r -t 0.107103574 -s 36 -d -1 -p message -e 32 -c 2 -a 0 -i 2 -k MAC
r -t 0.107103574 -s 16 -d -1 -p message -e 32 -c 2 -a 0 -i 2 -k MAC
r -t 0.107103691 -s 35 -d -1 -p message -e 32 -c 2 -a 0 -i 2 -k MAC
r -t 0.107103691 -s 15 -d -1 -p message -e 32 -c 2 -a 0 -i 2 -k MAC
r -t 0.107103707 -s 24 -d -1 -p message -e 32 -c 2 -a 0 -i 2 -k MAC
r -t 0.107103826 -s 34 -d -1 -p message -e 32 -c 2 -a 0 -i 2 -k MAC
r -t 0.107103826 -s 14 -d -1 -p message -e 32 -c 2 -a 0 -i 2 -k MAC
r -t 0.107103873 -s 8 -d -1 -p message -e 32 -c 2 -a 0 -i 2 -k MAC
r -t 0.107103873 -s 23 -d -1 -p message -e 32 -c 2 -a 0 -i 2 -k MAC
+ -t 0.120642399 -s 3 -d -1 -p message -e 90 -c 2 -a 0 -i 3 -k MAC 
- -t 0.120642399 -s 3 -d -1 -p message -e 90 -c 2 -a 0 -i 3 -k MAC
h -t 0.120642399 -s 3 -d -1 -p message -e 90 -c 2 -a 0 -i 3 -k MAC
r -t 0.121362566 -s 2 -d -1 -p message -e 32 -c 2 -a 0 -i 3 -k MAC
r -t 0.121362566 -s 4 -d -1 -p message -e 32 -c 2 -a 0 -i 3 -k MAC
r -t 0.121362733 -s 1 -d -1 -p message -e 32 -c 2 -a 0 -i 3 -k MAC
r -t 0.121362733 -s 5 -d -1 -p message -e 32 -c 2 -a 0 -i 3 -k MAC
r -t 0.121362816 -s 13 -d -1 -p message -e 32 -c 2 -a 0 -i 3 -k MAC
r -t 0.121362848 -s 12 -d -1 -p message -e 32 -c 2 -a 0 -i 3 -k MAC
r -t 0.121362848 -s 14 -d -1 -p message -e 32 -c 2 -a 0 -i 3 -k MAC
r -t 0.121362899 -s 0 -d -1 -p message -e 32 -c 2 -a 0 -i 3 -k MAC
r -t 0.121362899 -s 6 -d -1 -p message -e 32 -c 2 -a 0 -i 3 -k MAC
r -t 0.121362933 -s 11 -d -1 -p message -e 32 -c 2 -a 0 -i 3 -k MAC
r -t 0.121362933 -s 15 -d -1 -p message -e 32 -c 2 -a 0 -i 3 -k MAC
r -t 0.121363050 -s 10 -d -1 -p message -e 32 -c 2 -a 0 -i 3 -k MAC
r -t 0.121363050 -s 16 -d -1 -p message -e 32 -c 2 -a 0 -i 3 -k MAC
r -t 0.121363066 -s 7 -d -1 -p message -e 32 -c 2 -a 0 -i 3 -k MAC
r -t 0.121363185 -s 17 -d -1 -p message -e 32 -c 2 -a 0 -i 3 -k MAC
r -t 0.121363233 -s 23 -d -1 -p message -e 32 -c 2 -a 0 -i 3 -k MAC
r -t 0.121363233 -s 8 -d -1 -p message -e 32 -c 2 -a 0 -i 3 -k MAC
+ -t 0.180347765 -s 33 -d -1 -p message -e 90 -c 2 -a 0 -i 4 -k MAC 
- -t 0.180347765 -s 33 -d -1 -p message -e 90 -c 2 -a 0 -i 4 -k MAC
h -t 0.180347765 -s 33 -d -1 -p message -e 90 -c 2 -a 0 -i 4 -k MAC
r -t 0.181067931 -s 32 -d -1 -p message -e 32 -c 2 -a 0 -i 4 -k MAC
r -t 0.181067931 -s 34 -d -1 -p message -e 32 -c 2 -a 0 -i 4 -k MAC
r -t 0.181068098 -s 31 -d -1 -p message -e 32 -c 2 -a 0 -i 4 -k MAC
r -t 0.181068098 -s 35 -d -1 -p message -e 32 -c 2 -a 0 -i 4 -k MAC
r -t 0.181068181 -s 23 -d -1 -p message -e 32 -c 2 -a 0 -i 4 -k MAC
r -t 0.181068213 -s 22 -d -1 -p message -e 32 -c 2 -a 0 -i 4 -k MAC
r -t 0.181068213 -s 24 -d -1 -p message -e 32 -c 2 -a 0 -i 4 -k MAC
r -t 0.181068265 -s 30 -d -1 -p message -e 32 -c 2 -a 0 -i 4 -k MAC
r -t 0.181068265 -s 36 -d -1 -p message -e 32 -c 2 -a 0 -i 4 -k MAC
r -t 0.181068298 -s 21 -d -1 -p message -e 32 -c 2 -a 0 -i 4 -k MAC
r -t 0.181068298 -s 25 -d -1 -p message -e 32 -c 2 -a 0 -i 4 -k MAC
r -t 0.181068416 -s 20 -d -1 -p message -e 32 -c 2 -a 0 -i 4 -k MAC
r -t 0.181068416 -s 26 -d -1 -p message -e 32 -c 2 -a 0 -i 4 -k MAC
r -t 0.181068431 -s 37 -d -1 -p message -e 32 -c 2 -a 0 -i 4 -k MAC
r -t 0.181068551 -s 27 -d -1 -p message -e 32 -c 2 -a 0 -i 4 -k MAC
r -t 0.181068598 -s 13 -d -1 -p message -e 32 -c 2 -a 0 -i 4 -k MAC
r -t 0.181068598 -s 38 -d -1 -p message -e 32 -c 2 -a 0 -i 4 -k MAC
+ -t 0.191921407 -s 26 -d -1 -p message -e 90 -c 2 -a 0 -i 5 -k MAC 
- -t 0.191921407 -s 26 -d -1 -p message -e 90 -c 2 -a 0 -i 5 -k MAC
h -t 0.191921407 -s 26 -d -1 -p message -e 90 -c 2 -a 0 -i 5 -k MAC
r -t 0.192641574 -s 25 -d -1 -p message -e 32 -c 2 -a 0 -i 5 -k MAC
r -t 0.192641574 -s 27 -d -1 -p message -e 32 -c 2 -a 0 -i 5 -k MAC
r -t 0.192641740 -s 24 -d -1 -p message -e 32 -c 2 -a 0 -i 5 -k MAC
r -t 0.192641740 -s 28 -d -1 -p message -e 32 -c 2 -a 0 -i 5 -k MAC
r -t 0.192641824 -s 16 -d -1 -p message -e 32 -c 2 -a 0 -i 5 -k MAC
r -t 0.192641824 -s 36 -d -1 -p message -e 32 -c 2 -a 0 -i 5 -k MAC
r -t 0.192641856 -s 35 -d -1 -p message -e 32 -c 2 -a 0 -i 5 -k MAC
r -t 0.192641856 -s 15 -d -1 -p message -e 32 -c 2 -a 0 -i 5 -k MAC
r -t 0.192641856 -s 17 -d -1 -p message -e 32 -c 2 -a 0 -i 5 -k MAC
r -t 0.192641856 -s 37 -d -1 -p message -e 32 -c 2 -a 0 -i 5 -k MAC
r -t 0.192641907 -s 23 -d -1 -p message -e 32 -c 2 -a 0 -i 5 -k MAC
r -t 0.192641907 -s 29 -d -1 -p message -e 32 -c 2 -a 0 -i 5 -k MAC
r -t 0.192641941 -s 34 -d -1 -p message -e 32 -c 2 -a 0 -i 5 -k MAC
r -t 0.192641941 -s 14 -d -1 -p message -e 32 -c 2 -a 0 -i 5 -k MAC
r -t 0.192641941 -s 18 -d -1 -p message -e 32 -c 2 -a 0 -i 5 -k MAC
r -t 0.192641941 -s 38 -d -1 -p message -e 32 -c 2 -a 0 -i 5 -k MAC
r -t 0.192642058 -s 33 -d -1 -p message -e 32 -c 2 -a 0 -i 5 -k MAC
r -t 0.192642058 -s 13 -d -1 -p message -e 32 -c 2 -a 0 -i 5 -k MAC
r -t 0.192642058 -s 19 -d -1 -p message -e 32 -c 2 -a 0 -i 5 -k MAC
r -t 0.192642058 -s 39 -d -1 -p message -e 32 -c 2 -a 0 -i 5 -k MAC
r -t 0.192642074 -s 22 -d -1 -p message -e 32 -c 2 -a 0 -i 5 -k MAC
r -t 0.192642193 -s 32 -d -1 -p message -e 32 -c 2 -a 0 -i 5 -k MAC
r -t 0.192642193 -s 12 -d -1 -p message -e 32 -c 2 -a 0 -i 5 -k MAC
r -t 0.192642240 -s 6 -d -1 -p message -e 32 -c 2 -a 0 -i 5 -k MAC
r -t 0.192642240 -s 21 -d -1 -p message -e 32 -c 2 -a 0 -i 5 -k MAC
+ -t 0.224617046 -s 2 -d -1 -p message -e 90 -c 2 -a 0 -i 6 -k MAC 
- -t 0.224617046 -s 2 -d -1 -p message -e 90 -c 2 -a 0 -i 6 -k MAC
h -t 0.224617046 -s 2 -d -1 -p message -e 90 -c 2 -a 0 -i 6 -k MAC
r -t 0.225337212 -s 1 -d -1 -p message -e 32 -c 2 -a 0 -i 6 -k MAC
r -t 0.225337212 -s 3 -d -1 -p message -e 32 -c 2 -a 0 -i 6 -k MAC
r -t 0.225337379 -s 0 -d -1 -p message -e 32 -c 2 -a 0 -i 6 -k MAC
r -t 0.225337379 -s 4 -d -1 -p message -e 32 -c 2 -a 0 -i 6 -k MAC
r -t 0.225337462 -s 12 -d -1 -p message -e 32 -c 2 -a 0 -i 6 -k MAC
r -t 0.225337495 -s 11 -d -1 -p message -e 32 -c 2 -a 0 -i 6 -k MAC
r -t 0.225337495 -s 13 -d -1 -p message -e 32 -c 2 -a 0 -i 6 -k MAC
r -t 0.225337546 -s 5 -d -1 -p message -e 32 -c 2 -a 0 -i 6 -k MAC
r -t 0.225337579 -s 10 -d -1 -p message -e 32 -c 2 -a 0 -i 6 -k MAC
r -t 0.225337579 -s 14 -d -1 -p message -e 32 -c 2 -a 0 -i 6 -k MAC
r -t 0.225337697 -s 15 -d -1 -p message -e 32 -c 2 -a 0 -i 6 -k MAC
r -t 0.225337712 -s 6 -d -1 -p message -e 32 -c 2 -a 0 -i 6 -k MAC
r -t 0.225337832 -s 16 -d -1 -p message -e 32 -c 2 -a 0 -i 6 -k MAC
r -t 0.225337879 -s 22 -d -1 -p message -e 32 -c 2 -a 0 -i 6 -k MAC
r -t 0.225337879 -s 7 -d -1 -p message -e 32 -c 2 -a 0 -i 6 -k MAC
+ -t 0.251489460 -s 7 -d -1 -p message -e 90 -c 2 -a 0 -i 7 -k MAC 
- -t 0.251489460 -s 7 -d -1 -p message -e 90 -c 2 -a 0 -i 7 -k MAC
h -t 0.251489460 -s 7 -d -1 -p message -e 90 -c 2 -a 0 -i 7 -k MAC
r -t 0.252209627 -s 6 -d -1 -p message -e 32 -c 2 -a 0 -i 7 -k MAC
r -t 0.252209627 -s 8 -d -1 -p message -e 32 -c 2 -a 0 -i 7 -k MAC
r -t 0.252209794 -s 5 -d -1 -p message -e 32 -c 2 -a 0 -i 7 -k MAC
r -t 0.252209794 -s 9 -d -1 -p message -e 32 -c 2 -a 0 -i 7 -k MAC
r -t 0.252209877 -s 17 -d -1 -p message -e 32 -c 2 -a 0 -i 7 -k MAC
r -t 0.252209909 -s 16 -d -1 -p message -e 32 -c 2 -a 0 -i 7 -k MAC
r -t 0.252209909 -s 18 -d -1 -p message -e 32 -c 2 -a 0 -i 7 -k MAC
r -t 0.252209960 -s 4 -d -1 -p message -e 32 -c 2 -a 0 -i 7 -k MAC
r -t 0.252209994 -s 15 -d -1 -p message -e 32 -c 2 -a 0 -i 7 -k MAC
r -t 0.252209994 -s 19 -d -1 -p message -e 32 -c 2 -a 0 -i 7 -k MAC
r -t 0.252210111 -s 14 -d -1 -p message -e 32 -c 2 -a 0 -i 7 -k MAC
r -t 0.252210127 -s 3 -d -1 -p message -e 32 -c 2 -a 0 -i 7 -k MAC
r -t 0.252210247 -s 13 -d -1 -p message -e 32 -c 2 -a 0 -i 7 -k MAC
r -t 0.252210294 -s 2 -d -1 -p message -e 32 -c 2 -a 0 -i 7 -k MAC
r -t 0.252210294 -s 27 -d -1 -p message -e 32 -c 2 -a 0 -i 7 -k MAC
+ -t 0.362349844 -s 24 -d -1 -p message -e 90 -c 2 -a 0 -i 8 -k MAC 
- -t 0.362349844 -s 24 -d -1 -p message -e 90 -c 2 -a 0 -i 8 -k MAC
h -t 0.362349844 -s 24 -d -1 -p message -e 90 -c 2 -a 0 -i 8 -k MAC
r -t 0.363070011 -s 23 -d -1 -p message -e 32 -c 2 -a 0 -i 8 -k MAC
r -t 0.363070011 -s 25 -d -1 -p message -e 32 -c 2 -a 0 -i 8 -k MAC
r -t 0.363070177 -s 22 -d -1 -p message -e 32 -c 2 -a 0 -i 8 -k MAC
r -t 0.363070177 -s 26 -d -1 -p message -e 32 -c 2 -a 0 -i 8 -k MAC
r -t 0.363070261 -s 14 -d -1 -p message -e 32 -c 2 -a 0 -i 8 -k MAC
r -t 0.363070261 -s 34 -d -1 -p message -e 32 -c 2 -a 0 -i 8 -k MAC
r -t 0.363070293 -s 33 -d -1 -p message -e 32 -c 2 -a 0 -i 8 -k MAC
r -t 0.363070293 -s 13 -d -1 -p message -e 32 -c 2 -a 0 -i 8 -k MAC
r -t 0.363070293 -s 15 -d -1 -p message -e 32 -c 2 -a 0 -i 8 -k MAC
r -t 0.363070293 -s 35 -d -1 -p message -e 32 -c 2 -a 0 -i 8 -k MAC
r -t 0.363070344 -s 21 -d -1 -p message -e 32 -c 2 -a 0 -i 8 -k MAC
r -t 0.363070344 -s 27 -d -1 -p message -e 32 -c 2 -a 0 -i 8 -k MAC
r -t 0.363070377 -s 32 -d -1 -p message -e 32 -c 2 -a 0 -i 8 -k MAC
r -t 0.363070377 -s 12 -d -1 -p message -e 32 -c 2 -a 0 -i 8 -k MAC
r -t 0.363070377 -s 16 -d -1 -p message -e 32 -c 2 -a 0 -i 8 -k MAC
r -t 0.363070377 -s 36 -d -1 -p message -e 32 -c 2 -a 0 -i 8 -k MAC
r -t 0.363070495 -s 31 -d -1 -p message -e 32 -c 2 -a 0 -i 8 -k MAC
r -t 0.363070495 -s 11 -d -1 -p message -e 32 -c 2 -a 0 -i 8 -k MAC
r -t 0.363070495 -s 17 -d -1 -p message -e 32 -c 2 -a 0 -i 8 -k MAC
r -t 0.363070495 -s 37 -d -1 -p message -e 32 -c 2 -a 0 -i 8 -k MAC
r -t 0.363070511 -s 20 -d -1 -p message -e 32 -c 2 -a 0 -i 8 -k MAC
r -t 0.363070511 -s 28 -d -1 -p message -e 32 -c 2 -a 0 -i 8 -k MAC
r -t 0.363070630 -s 30 -d -1 -p message -e 32 -c 2 -a 0 -i 8 -k MAC
r -t 0.363070630 -s 10 -d -1 -p message -e 32 -c 2 -a 0 -i 8 -k MAC
r -t 0.363070630 -s 18 -d -1 -p message -e 32 -c 2 -a 0 -i 8 -k MAC
r -t 0.363070630 -s 38 -d -1 -p message -e 32 -c 2 -a 0 -i 8 -k MAC
r -t 0.363070677 -s 4 -d -1 -p message -e 32 -c 2 -a 0 -i 8 -k MAC
r -t 0.363070677 -s 29 -d -1 -p message -e 32 -c 2 -a 0 -i 8 -k MAC
+ -t 0.381757653 -s 18 -d -1 -p message -e 90 -c 2 -a 0 -i 9 -k MAC 
- -t 0.381757653 -s 18 -d -1 -p message -e 90 -c 2 -a 0 -i 9 -k MAC
h -t 0.381757653 -s 18 -d -1 -p message -e 90 -c 2 -a 0 -i 9 -k MAC
r -t 0.382477820 -s 17 -d -1 -p message -e 32 -c 2 -a 0 -i 9 -k MAC
r -t 0.382477820 -s 19 -d -1 -p message -e 32 -c 2 -a 0 -i 9 -k MAC
r -t 0.382477987 -s 16 -d -1 -p message -e 32 -c 2 -a 0 -i 9 -k MAC
r -t 0.382478070 -s 8 -d -1 -p message -e 32 -c 2 -a 0 -i 9 -k MAC
r -t 0.382478070 -s 28 -d -1 -p message -e 32 -c 2 -a 0 -i 9 -k MAC
r -t 0.382478102 -s 27 -d -1 -p message -e 32 -c 2 -a 0 -i 9 -k MAC
r -t 0.382478102 -s 7 -d -1 -p message -e 32 -c 2 -a 0 -i 9 -k MAC
r -t 0.382478102 -s 9 -d -1 -p message -e 32 -c 2 -a 0 -i 9 -k MAC
r -t 0.382478102 -s 29 -d -1 -p message -e 32 -c 2 -a 0 -i 9 -k MAC
r -t 0.382478153 -s 15 -d -1 -p message -e 32 -c 2 -a 0 -i 9 -k MAC
r -t 0.382478187 -s 26 -d -1 -p message -e 32 -c 2 -a 0 -i 9 -k MAC
r -t 0.382478187 -s 6 -d -1 -p message -e 32 -c 2 -a 0 -i 9 -k MAC
r -t 0.382478304 -s 25 -d -1 -p message -e 32 -c 2 -a 0 -i 9 -k MAC
r -t 0.382478304 -s 5 -d -1 -p message -e 32 -c 2 -a 0 -i 9 -k MAC
r -t 0.382478320 -s 14 -d -1 -p message -e 32 -c 2 -a 0 -i 9 -k MAC
r -t 0.382478439 -s 24 -d -1 -p message -e 32 -c 2 -a 0 -i 9 -k MAC
r -t 0.382478439 -s 4 -d -1 -p message -e 32 -c 2 -a 0 -i 9 -k MAC
r -t 0.382478487 -s 13 -d -1 -p message -e 32 -c 2 -a 0 -i 9 -k MAC
r -t 0.382478487 -s 38 -d -1 -p message -e 32 -c 2 -a 0 -i 9 -k MAC
+ -t 0.418057848 -s 22 -d -1 -p message -e 90 -c 2 -a 0 -i 10 -k MAC 
- -t 0.418057848 -s 22 -d -1 -p message -e 90 -c 2 -a 0 -i 10 -k MAC
h -t 0.418057848 -s 22 -d -1 -p message -e 90 -c 2 -a 0 -i 10 -k MAC
r -t 0.418778014 -s 21 -d -1 -p message -e 32 -c 2 -a 0 -i 10 -k MAC
r -t 0.418778014 -s 23 -d -1 -p message -e 32 -c 2 -a 0 -i 10 -k MAC
r -t 0.418778181 -s 20 -d -1 -p message -e 32 -c 2 -a 0 -i 10 -k MAC
r -t 0.418778181 -s 24 -d -1 -p message -e 32 -c 2 -a 0 -i 10 -k MAC
r -t 0.418778264 -s 12 -d -1 -p message -e 32 -c 2 -a 0 -i 10 -k MAC
r -t 0.418778264 -s 32 -d -1 -p message -e 32 -c 2 -a 0 -i 10 -k MAC
r -t 0.418778296 -s 31 -d -1 -p message -e 32 -c 2 -a 0 -i 10 -k MAC
r -t 0.418778296 -s 11 -d -1 -p message -e 32 -c 2 -a 0 -i 10 -k MAC
r -t 0.418778296 -s 13 -d -1 -p message -e 32 -c 2 -a 0 -i 10 -k MAC
r -t 0.418778296 -s 33 -d -1 -p message -e 32 -c 2 -a 0 -i 10 -k MAC
r -t 0.418778348 -s 25 -d -1 -p message -e 32 -c 2 -a 0 -i 10 -k MAC
r -t 0.418778381 -s 30 -d -1 -p message -e 32 -c 2 -a 0 -i 10 -k MAC
r -t 0.418778381 -s 10 -d -1 -p message -e 32 -c 2 -a 0 -i 10 -k MAC
r -t 0.418778381 -s 14 -d -1 -p message -e 32 -c 2 -a 0 -i 10 -k MAC
r -t 0.418778381 -s 34 -d -1 -p message -e 32 -c 2 -a 0 -i 10 -k MAC
r -t 0.418778499 -s 15 -d -1 -p message -e 32 -c 2 -a 0 -i 10 -k MAC
r -t 0.418778499 -s 35 -d -1 -p message -e 32 -c 2 -a 0 -i 10 -k MAC
r -t 0.418778514 -s 26 -d -1 -p message -e 32 -c 2 -a 0 -i 10 -k MAC
r -t 0.418778634 -s 16 -d -1 -p message -e 32 -c 2 -a 0 -i 10 -k MAC
r -t 0.418778634 -s 36 -d -1 -p message -e 32 -c 2 -a 0 -i 10 -k MAC
r -t 0.418778681 -s 2 -d -1 -p message -e 32 -c 2 -a 0 -i 10 -k MAC
r -t 0.418778681 -s 27 -d -1 -p message -e 32 -c 2 -a 0 -i 10 -k MAC
+ -t 0.520471377 -s 9 -d -1 -p message -e 90 -c 2 -a 0 -i 11 -k MAC 
- -t 0.520471377 -s 9 -d -1 -p message -e 90 -c 2 -a 0 -i 11 -k MAC
h -t 0.520471377 -s 9 -d -1 -p message -e 90 -c 2 -a 0 -i 11 -k MAC
r -t 0.521191544 -s 8 -d -1 -p message -e 32 -c 2 -a 0 -i 11 -k MAC
r -t 0.521191711 -s 7 -d -1 -p message -e 32 -c 2 -a 0 -i 11 -k MAC
r -t 0.521191794 -s 19 -d -1 -p message -e 32 -c 2 -a 0 -i 11 -k MAC
r -t 0.521191826 -s 18 -d -1 -p message -e 32 -c 2 -a 0 -i 11 -k MAC
r -t 0.521191877 -s 6 -d -1 -p message -e 32 -c 2 -a 0 -i 11 -k MAC
r -t 0.521191911 -s 17 -d -1 -p message -e 32 -c 2 -a 0 -i 11 -k MAC
r -t 0.521192028 -s 16 -d -1 -p message -e 32 -c 2 -a 0 -i 11 -k MAC
r -t 0.521192044 -s 5 -d -1 -p message -e 32 -c 2 -a 0 -i 11 -k MAC
r -t 0.521192164 -s 15 -d -1 -p message -e 32 -c 2 -a 0 -i 11 -k MAC
r -t 0.521192211 -s 4 -d -1 -p message -e 32 -c 2 -a 0 -i 11 -k MAC
r -t 0.521192211 -s 29 -d -1 -p message -e 32 -c 2 -a 0 -i 11 -k MAC
+ -t 0.524608185 -s 13 -d -1 -p message -e 90 -c 2 -a 0 -i 12 -k MAC 
- -t 0.524608185 -s 13 -d -1 -p message -e 90 -c 2 -a 0 -i 12 -k MAC
h -t 0.524608185 -s 13 -d -1 -p message -e 90 -c 2 -a 0 -i 12 -k MAC
r -t 0.525328351 -s 12 -d -1 -p message -e 32 -c 2 -a 0 -i 12 -k MAC
r -t 0.525328351 -s 14 -d -1 -p message -e 32 -c 2 -a 0 -i 12 -k MAC
r -t 0.525328518 -s 11 -d -1 -p message -e 32 -c 2 -a 0 -i 12 -k MAC
r -t 0.525328518 -s 15 -d -1 -p message -e 32 -c 2 -a 0 -i 12 -k MAC
r -t 0.525328601 -s 3 -d -1 -p message -e 32 -c 2 -a 0 -i 12 -k MAC
r -t 0.525328601 -s 23 -d -1 -p message -e 32 -c 2 -a 0 -i 12 -k MAC
r -t 0.525328633 -s 22 -d -1 -p message -e 32 -c 2 -a 0 -i 12 -k MAC
r -t 0.525328633 -s 2 -d -1 -p message -e 32 -c 2 -a 0 -i 12 -k MAC
r -t 0.525328633 -s 4 -d -1 -p message -e 32 -c 2 -a 0 -i 12 -k MAC
r -t 0.525328633 -s 24 -d -1 -p message -e 32 -c 2 -a 0 -i 12 -k MAC
r -t 0.525328685 -s 10 -d -1 -p message -e 32 -c 2 -a 0 -i 12 -k MAC
r -t 0.525328685 -s 16 -d -1 -p message -e 32 -c 2 -a 0 -i 12 -k MAC
r -t 0.525328718 -s 21 -d -1 -p message -e 32 -c 2 -a 0 -i 12 -k MAC
r -t 0.525328718 -s 1 -d -1 -p message -e 32 -c 2 -a 0 -i 12 -k MAC
r -t 0.525328718 -s 5 -d -1 -p message -e 32 -c 2 -a 0 -i 12 -k MAC
r -t 0.525328718 -s 25 -d -1 -p message -e 32 -c 2 -a 0 -i 12 -k MAC
r -t 0.525328835 -s 20 -d -1 -p message -e 32 -c 2 -a 0 -i 12 -k MAC
r -t 0.525328835 -s 0 -d -1 -p message -e 32 -c 2 -a 0 -i 12 -k MAC
r -t 0.525328835 -s 6 -d -1 -p message -e 32 -c 2 -a 0 -i 12 -k MAC
r -t 0.525328835 -s 26 -d -1 -p message -e 32 -c 2 -a 0 -i 12 -k MAC
r -t 0.525328851 -s 17 -d -1 -p message -e 32 -c 2 -a 0 -i 12 -k MAC
r -t 0.525328971 -s 7 -d -1 -p message -e 32 -c 2 -a 0 -i 12 -k MAC
r -t 0.525328971 -s 27 -d -1 -p message -e 32 -c 2 -a 0 -i 12 -k MAC
r -t 0.525329018 -s 33 -d -1 -p message -e 32 -c 2 -a 0 -i 12 -k MAC
r -t 0.525329018 -s 18 -d -1 -p message -e 32 -c 2 -a 0 -i 12 -k MAC
+ -t 0.661034011 -s 17 -d -1 -p message -e 90 -c 2 -a 0 -i 13 -k MAC 
- -t 0.661034011 -s 17 -d -1 -p message -e 90 -c 2 -a 0 -i 13 -k MAC
h -t 0.661034011 -s 17 -d -1 -p message -e 90 -c 2 -a 0 -i 13 -k MAC
r -t 0.661754177 -s 16 -d -1 -p message -e 32 -c 2 -a 0 -i 13 -k MAC
r -t 0.661754177 -s 18 -d -1 -p message -e 32 -c 2 -a 0 -i 13 -k MAC
r -t 0.661754344 -s 15 -d -1 -p message -e 32 -c 2 -a 0 -i 13 -k MAC
r -t 0.661754344 -s 19 -d -1 -p message -e 32 -c 2 -a 0 -i 13 -k MAC
r -t 0.661754427 -s 7 -d -1 -p message -e 32 -c 2 -a 0 -i 13 -k MAC
r -t 0.661754427 -s 27 -d -1 -p message -e 32 -c 2 -a 0 -i 13 -k MAC
r -t 0.661754460 -s 26 -d -1 -p message -e 32 -c 2 -a 0 -i 13 -k MAC
r -t 0.661754460 -s 6 -d -1 -p message -e 32 -c 2 -a 0 -i 13 -k MAC
r -t 0.661754460 -s 8 -d -1 -p message -e 32 -c 2 -a 0 -i 13 -k MAC
r -t 0.661754460 -s 28 -d -1 -p message -e 32 -c 2 -a 0 -i 13 -k MAC
r -t 0.661754511 -s 14 -d -1 -p message -e 32 -c 2 -a 0 -i 13 -k MAC
r -t 0.661754544 -s 25 -d -1 -p message -e 32 -c 2 -a 0 -i 13 -k MAC
r -t 0.661754544 -s 5 -d -1 -p message -e 32 -c 2 -a 0 -i 13 -k MAC
r -t 0.661754544 -s 9 -d -1 -p message -e 32 -c 2 -a 0 -i 13 -k MAC
r -t 0.661754544 -s 29 -d -1 -p message -e 32 -c 2 -a 0 -i 13 -k MAC
r -t 0.661754662 -s 24 -d -1 -p message -e 32 -c 2 -a 0 -i 13 -k MAC
r -t 0.661754662 -s 4 -d -1 -p message -e 32 -c 2 -a 0 -i 13 -k MAC
r -t 0.661754677 -s 13 -d -1 -p message -e 32 -c 2 -a 0 -i 13 -k MAC
r -t 0.661754797 -s 23 -d -1 -p message -e 32 -c 2 -a 0 -i 13 -k MAC
r -t 0.661754797 -s 3 -d -1 -p message -e 32 -c 2 -a 0 -i 13 -k MAC
r -t 0.661754844 -s 12 -d -1 -p message -e 32 -c 2 -a 0 -i 13 -k MAC
r -t 0.661754844 -s 37 -d -1 -p message -e 32 -c 2 -a 0 -i 13 -k MAC
+ -t 0.672207496 -s 6 -d -1 -p message -e 90 -c 2 -a 0 -i 14 -k MAC 
- -t 0.672207496 -s 6 -d -1 -p message -e 90 -c 2 -a 0 -i 14 -k MAC
h -t 0.672207496 -s 6 -d -1 -p message -e 90 -c 2 -a 0 -i 14 -k MAC
r -t 0.672927663 -s 5 -d -1 -p message -e 32 -c 2 -a 0 -i 14 -k MAC
r -t 0.672927663 -s 7 -d -1 -p message -e 32 -c 2 -a 0 -i 14 -k MAC
r -t 0.672927829 -s 4 -d -1 -p message -e 32 -c 2 -a 0 -i 14 -k MAC
r -t 0.672927829 -s 8 -d -1 -p message -e 32 -c 2 -a 0 -i 14 -k MAC
r -t 0.672927913 -s 16 -d -1 -p message -e 32 -c 2 -a 0 -i 14 -k MAC
r -t 0.672927945 -s 15 -d -1 -p message -e 32 -c 2 -a 0 -i 14 -k MAC
r -t 0.672927945 -s 17 -d -1 -p message -e 32 -c 2 -a 0 -i 14 -k MAC
r -t 0.672927996 -s 3 -d -1 -p message -e 32 -c 2 -a 0 -i 14 -k MAC
r -t 0.672927996 -s 9 -d -1 -p message -e 32 -c 2 -a 0 -i 14 -k MAC
r -t 0.672928030 -s 14 -d -1 -p message -e 32 -c 2 -a 0 -i 14 -k MAC
r -t 0.672928030 -s 18 -d -1 -p message -e 32 -c 2 -a 0 -i 14 -k MAC
r -t 0.672928147 -s 13 -d -1 -p message -e 32 -c 2 -a 0 -i 14 -k MAC
r -t 0.672928147 -s 19 -d -1 -p message -e 32 -c 2 -a 0 -i 14 -k MAC
r -t 0.672928163 -s 2 -d -1 -p message -e 32 -c 2 -a 0 -i 14 -k MAC
r -t 0.672928282 -s 12 -d -1 -p message -e 32 -c 2 -a 0 -i 14 -k MAC
r -t 0.672928329 -s 1 -d -1 -p message -e 32 -c 2 -a 0 -i 14 -k MAC
r -t 0.672928329 -s 26 -d -1 -p message -e 32 -c 2 -a 0 -i 14 -k MAC
+ -t 0.847369205 -s 32 -d -1 -p message -e 90 -c 2 -a 0 -i 15 -k MAC 
- -t 0.847369205 -s 32 -d -1 -p message -e 90 -c 2 -a 0 -i 15 -k MAC
h -t 0.847369205 -s 32 -d -1 -p message -e 90 -c 2 -a 0 -i 15 -k MAC
r -t 0.848089371 -s 31 -d -1 -p message -e 32 -c 2 -a 0 -i 15 -k MAC
r -t 0.848089371 -s 33 -d -1 -p message -e 32 -c 2 -a 0 -i 15 -k MAC
r -t 0.848089538 -s 30 -d -1 -p message -e 32 -c 2 -a 0 -i 15 -k MAC
r -t 0.848089538 -s 34 -d -1 -p message -e 32 -c 2 -a 0 -i 15 -k MAC
r -t 0.848089621 -s 22 -d -1 -p message -e 32 -c 2 -a 0 -i 15 -k MAC
r -t 0.848089653 -s 21 -d -1 -p message -e 32 -c 2 -a 0 -i 15 -k MAC
r -t 0.848089653 -s 23 -d -1 -p message -e 32 -c 2 -a 0 -i 15 -k MAC
r -t 0.848089705 -s 35 -d -1 -p message -e 32 -c 2 -a 0 -i 15 -k MAC
r -t 0.848089738 -s 20 -d -1 -p message -e 32 -c 2 -a 0 -i 15 -k MAC
r -t 0.848089738 -s 24 -d -1 -p message -e 32 -c 2 -a 0 -i 15 -k MAC
r -t 0.848089855 -s 25 -d -1 -p message -e 32 -c 2 -a 0 -i 15 -k MAC
r -t 0.848089871 -s 36 -d -1 -p message -e 32 -c 2 -a 0 -i 15 -k MAC
r -t 0.848089991 -s 26 -d -1 -p message -e 32 -c 2 -a 0 -i 15 -k MAC
r -t 0.848090038 -s 12 -d -1 -p message -e 32 -c 2 -a 0 -i 15 -k MAC
r -t 0.848090038 -s 37 -d -1 -p message -e 32 -c 2 -a 0 -i 15 -k MAC
+ -t 0.856429294 -s 15 -d -1 -p message -e 90 -c 2 -a 0 -i 16 -k MAC 
- -t 0.856429294 -s 15 -d -1 -p message -e 90 -c 2 -a 0 -i 16 -k MAC
h -t 0.856429294 -s 15 -d -1 -p message -e 90 -c 2 -a 0 -i 16 -k MAC
r -t 0.857149461 -s 14 -d -1 -p message -e 32 -c 2 -a 0 -i 16 -k MAC
r -t 0.857149461 -s 16 -d -1 -p message -e 32 -c 2 -a 0 -i 16 -k MAC
r -t 0.857149627 -s 13 -d -1 -p message -e 32 -c 2 -a 0 -i 16 -k MAC
r -t 0.857149627 -s 17 -d -1 -p message -e 32 -c 2 -a 0 -i 16 -k MAC
r -t 0.857149711 -s 5 -d -1 -p message -e 32 -c 2 -a 0 -i 16 -k MAC
r -t 0.857149711 -s 25 -d -1 -p message -e 32 -c 2 -a 0 -i 16 -k MAC
r -t 0.857149743 -s 24 -d -1 -p message -e 32 -c 2 -a 0 -i 16 -k MAC
r -t 0.857149743 -s 4 -d -1 -p message -e 32 -c 2 -a 0 -i 16 -k MAC
r -t 0.857149743 -s 6 -d -1 -p message -e 32 -c 2 -a 0 -i 16 -k MAC
r -t 0.857149743 -s 26 -d -1 -p message -e 32 -c 2 -a 0 -i 16 -k MAC
r -t 0.857149794 -s 12 -d -1 -p message -e 32 -c 2 -a 0 -i 16 -k MAC
r -t 0.857149794 -s 18 -d -1 -p message -e 32 -c 2 -a 0 -i 16 -k MAC
r -t 0.857149828 -s 23 -d -1 -p message -e 32 -c 2 -a 0 -i 16 -k MAC
r -t 0.857149828 -s 3 -d -1 -p message -e 32 -c 2 -a 0 -i 16 -k MAC
r -t 0.857149828 -s 7 -d -1 -p message -e 32 -c 2 -a 0 -i 16 -k MAC
r -t 0.857149828 -s 27 -d -1 -p message -e 32 -c 2 -a 0 -i 16 -k MAC
r -t 0.857149945 -s 22 -d -1 -p message -e 32 -c 2 -a 0 -i 16 -k MAC
r -t 0.857149945 -s 2 -d -1 -p message -e 32 -c 2 -a 0 -i 16 -k MAC
r -t 0.857149945 -s 8 -d -1 -p message -e 32 -c 2 -a 0 -i 16 -k MAC
r -t 0.857149945 -s 28 -d -1 -p message -e 32 -c 2 -a 0 -i 16 -k MAC
r -t 0.857149961 -s 11 -d -1 -p message -e 32 -c 2 -a 0 -i 16 -k MAC
r -t 0.857149961 -s 19 -d -1 -p message -e 32 -c 2 -a 0 -i 16 -k MAC
r -t 0.857150080 -s 21 -d -1 -p message -e 32 -c 2 -a 0 -i 16 -k MAC
r -t 0.857150080 -s 1 -d -1 -p message -e 32 -c 2 -a 0 -i 16 -k MAC
r -t 0.857150080 -s 9 -d -1 -p message -e 32 -c 2 -a 0 -i 16 -k MAC
r -t 0.857150080 -s 29 -d -1 -p message -e 32 -c 2 -a 0 -i 16 -k MAC
r -t 0.857150127 -s 10 -d -1 -p message -e 32 -c 2 -a 0 -i 16 -k MAC
r -t 0.857150127 -s 35 -d -1 -p message -e 32 -c 2 -a 0 -i 16 -k MAC
+ -t 0.985156346 -s 27 -d -1 -p message -e 90 -c 2 -a 0 -i 17 -k MAC 
- -t 0.985156346 -s 27 -d -1 -p message -e 90 -c 2 -a 0 -i 17 -k MAC
h -t 0.985156346 -s 27 -d -1 -p message -e 90 -c 2 -a 0 -i 17 -k MAC
r -t 0.985876513 -s 26 -d -1 -p message -e 32 -c 2 -a 0 -i 17 -k MAC
r -t 0.985876513 -s 28 -d -1 -p message -e 32 -c 2 -a 0 -i 17 -k MAC