s 0.000339577 _2_ AGT  --- 0 udp 48 [0 0 0 0] ------- [8388608:0 2147483647:0 32 0] 
r 0.000339577 _2_ RTR  --- 0 udp 48 [0 0 0 0] ------- [8388608:0 2147483647:0 32 0] 
f 0.002685595 _2_ RTR  --- 0 udp 68 [0 0 0 0] ------- [8388608:0 2147483647:0 32 0] 
s 0.007545395 _3_ MAC  --- 0 ACRQ 36 [0 0 0 0] 
s 0.007545395 _3_ MAC  --- 0 ACRQ 8 [0 0 0 0] 
s 0.007545395 _3_ MAC  --- 0 ACRQ 109 [0 0 0 0] 
s 0.007728252 _3_ MAC  --- 0 ACRQ 77 [0 0 0 0] 
s 0.009194326 _2_ MAC  --- 0 ACRQ 43 [0 0 0 0] 
s 0.009194326 _2_ MAC  --- 0 ACRQ 8 [0 0 0 0] 
s 0.009194326 _2_ MAC  --- 0 ACRQ 109 [0 0 0 0] 
r 0.009286441 _4_ MAC  --- 0 ACRQ 43 [0 0 0 0] 
r 0.009286442 _4_ MAC  --- 0 ACRQ 8 [0 0 0 0] 
s 0.009377183 _2_ MAC  --- 0 ACRQ 77 [0 0 0 0] 
s 0.009377183 _2_ MAC  --- 0 udp 74 [0 0 ffff0008 0] ------- [8388608:0 2147483647:0 32 0] 
r 0.009377872 _4_ MAC  --- 0 ACRQ 109 [0 0 0 0] 
r 0.009469302 _4_ MAC  --- 0 ACRQ 77 [0 0 0 0] 
s 0.012545395 _3_ MAC  --- 0 ACRQ 21 [0 0 0 0] 
s 0.012545395 _3_ MAC  --- 0 ACRQ 8 [0 0 0 0] 
s 0.014194326 _2_ MAC  --- 0 ACRQ 21 [0 0 0 0] 
s 0.014194326 _2_ MAC  --- 0 ACRQ 8 [0 0 0 0] 
s 0.014204661 _3_ AGT  --- 1 udp 48 [0 0 0 0] ------- [12582912:0 2147483647:0 32 0] 
r 0.014204661 _3_ RTR  --- 1 udp 48 [0 0 0 0] ------- [12582912:0 2147483647:0 32 0] 
r 0.014286446 _4_ MAC  --- 0 ACRQ 21 [0 0 0 0] 
r 0.014286447 _4_ MAC  --- 0 ACRQ 8 [0 0 0 0] 
f 0.015846115 _3_ RTR  --- 1 udp 68 [0 0 0 0] ------- [12582912:0 2147483647:0 32 0] 
s 0.017398589 _4_ MAC  --- 0 ACRQ 6 [0 0 0 0] 
s 0.017545395 _3_ MAC  --- 0 ACRQ 28 [0 0 0 0] 
s 0.017545395 _3_ MAC  --- 0 ACRQ 8 [0 0 0 0] 
s 0.017545395 _3_ MAC  --- 1 udp 74 [0 1000000 ffff0008 0] ------- [12582912:0 2147483647:0 32 0] 
s 0.019194326 _2_ MAC  --- 0 ACRQ 21 [0 0 0 0] 
s 0.019194326 _2_ MAC  --- 0 ACRQ 13 [0 0 0 0] 
r 0.019286448 _4_ MAC  --- 0 ACRQ 21 [0 0 0 0] 
r 0.019286449 _4_ MAC  --- 0 ACRQ 13 [0 0 0 0] 
s 0.022545395 _3_ MAC  --- 0 ACRQ 21 [0 0 0 0] 
s 0.022545395 _3_ MAC  --- 0 ACRQ 8 [0 0 0 0] 
s 0.022672877 _4_ MAC  --- 0 ACRQ 13 [0 0 0 0] 
D 0.022947850 _2_ MAC CNXERR 0 ACRQ 13 [0 0 0 0] 
s 0.024194326 _2_ MAC  --- 0 ACRQ 21 [0 0 0 0] 
s 0.024194326 _2_ MAC  --- 0 ACRQ 8 [0 0 0 0] 
r 0.024286441 _4_ MAC  --- 0 ACRQ 21 [0 0 0 0] 
r 0.024286442 _4_ MAC  --- 0 ACRQ 8 [0 0 0 0] 
s 0.027545395 _3_ MAC  --- 0 ACRQ 21 [0 0 0 0] 
s 0.027545395 _3_ MAC  --- 0 ACRQ 8 [0 0 0 0] 
s 0.029194326 _2_ MAC  --- 0 ACRQ 21 [0 0 0 0] 
s 0.029194326 _2_ MAC  --- 0 ACRQ 8 [0 0 0 0] 
r 0.029286441 _4_ MAC  --- 0 ACRQ 21 [0 0 0 0] 
r 0.029286442 _4_ MAC  --- 0 ACRQ 8 [0 0 0 0] 
s 0.032545395 _3_ MAC  --- 0 ACRQ 21 [0 0 0 0] 
s 0.032545395 _3_ MAC  --- 0 ACRQ 8 [0 0 0 0] 
s 0.034194326 _2_ MAC  --- 0 ACRQ 21 [0 0 0 0] 
s 0.034194326 _2_ MAC  --- 0 ACRQ 8 [0 0 0 0] 
r 0.034286441 _4_ MAC  --- 0 ACRQ 21 [0 0 0 0] 
r 0.034286442 _4_ MAC  --- 0 ACRQ 8 [0 0 0 0] 
s 0.037545395 _3_ MAC  --- 0 ACRQ 21 [0 0 0 0] 
s 0.037545395 _3_ MAC  --- 0 ACRQ 8 [0 0 0 0] 
s 0.039194326 _2_ MAC  --- 0 ACRQ 21 [0 0 0 0] 
s 0.039194326 _2_ MAC  --- 0 ACRQ 8 [0 0 0 0] 
r 0.039286441 _4_ MAC  --- 0 ACRQ 21 [0 0 0 0] 
r 0.039286442 _4_ MAC  --- 0 ACRQ 8 [0 0 0 0] 
s 0.042545395 _3_ MAC  --- 0 ACRQ 21 [0 0 0 0] 
s 0.042545395 _3_ MAC  --- 0 ACRQ 8 [0 0 0 0] 
s 0.044061336 _3_ AGT  --- 2 tcp 1 [0 0 0 0] ------- [12582912:2 8388608:2 32 0] [0 0] 0 0
+ 0.044061 3 1 tcp 1 ------- 0 3.0.0.2 2.0.0.2 0 2
- 0.044061 3 1 tcp 1 ------- 0 3.0.0.2 2.0.0.2 0 2
s 0.044194326 _2_ MAC  --- 0 ACRQ 21 [0 0 0 0] 
s 0.044194326 _2_ MAC  --- 0 ACRQ 8 [0 0 0 0] 
r 0.044286441 _4_ MAC  --- 0 ACRQ 21 [0 0 0 0] 
r 0.044286442 _4_ MAC  --- 0 ACRQ 8 [0 0 0 0] 
r 0.047061 3 1 tcp 1 ------- 0 3.0.0.2 2.0.0.2 0 2
+ 0.047061 1 2 tcp 1 ------- 0 3.0.0.2 2.0.0.2 0 2
- 0.047061 1 2 tcp 1 ------- 0 3.0.0.2 2.0.0.2 0 2
s 0.047545395 _3_ MAC  --- 0 ACRQ 21 [0 0 0 0] 
s 0.047545395 _3_ MAC  --- 0 ACRQ 8 [0 0 0 0] 
s 0.049194326 _2_ MAC  --- 0 ACRQ 21 [0 0 0 0] 
s 0.049194326 _2_ MAC  --- 0 ACRQ 8 [0 0 0 0] 
r 0.049286441 _4_ MAC  --- 0 ACRQ 21 [0 0 0 0] 
r 0.049286442 _4_ MAC  --- 0 ACRQ 8 [0 0 0 0] 
r 0.050061 1 2 tcp 1 ------- 0 3.0.0.2 2.0.0.2 0 2
r 0.050061496 _2_ AGT  --- 2 tcp 1 [0 0 0 0] ------- [12582912:2 8388608:2 30 0] [0 0] 0 0
s 0.052545395 _3_ MAC  --- 0 ACRQ 21 [0 0 0 0] 
s 0.052545395 _3_ MAC  --- 0 ACRQ 8 [0 0 0 0] 
s 0.054194326 _2_ MAC  --- 0 ACRQ 21 [0 0 0 0] 
s 0.054194326 _2_ MAC  --- 0 ACRQ 8 [0 0 0 0] 
r 0.054286441 _4_ MAC  --- 0 ACRQ 21 [0 0 0 0] 
r 0.054286442 _4_ MAC  --- 0 ACRQ 8 [0 0 0 0] 
s 0.057545395 _3_ MAC  --- 0 ACRQ 21 [0 0 0 0] 
s 0.057545395 _3_ MAC  --- 0 ACRQ 8 [0 0 0 0] 
s 0.059194326 _2_ MAC  --- 0 ACRQ 21 [0 0 0 0] 
s 0.059194326 _2_ MAC  --- 0 ACRQ 8 [0 0 0 0] 
r 0.059286441 _4_ MAC  --- 0 ACRQ 21 [0 0 0 0] 
r 0.059286442 _4_ MAC  --- 0 ACRQ 8 [0 0 0 0] 
s 0.062545395 _3_ MAC  --- 0 ACRQ 21 [0 0 0 0] 
s 0.062545395 _3_ MAC  --- 0 ACRQ 8 [0 0 0 0] 
s 0.064194326 _2_ MAC  --- 0 ACRQ 21 [0 0 0 0] 
s 0.064194326 _2_ MAC  --- 0 ACRQ 8 [0 0 0 0] 
r 0.064286443 _4_ MAC  --- 0 ACRQ 21 [0 0 0 0] 
r 0.064286444 _4_ MAC  --- 0 ACRQ 8 [0 0 0 0] 
s 0.067545395 _3_ MAC  --- 0 ACRQ 21 [0 0 0 0] 
s 0.067545395 _3_ MAC  --- 0 ACRQ 8 [0 0 0 0] 
s 0.069194326 _2_ MAC  --- 0 ACRQ 21 [0 0 0 0] 
s 0.069194326 _2_ MAC  --- 0 ACRQ 8 [0 0 0 0] 
r 0.069286441 _4_ MAC  --- 0 ACRQ 21 [0 0 0 0] 
r 0.069286442 _4_ MAC  --- 0 ACRQ 8 [0 0 0 0] 
s 0.072545395 _3_ MAC  --- 0 ACRQ 21 [0 0 0 0] 
s 0.072545395 _3_ MAC  --- 0 ACRQ 8 [0 0 0 0] 
s 0.074194326 _2_ MAC  --- 0 ACRQ 21 [0 0 0 0] 
s 0.074194326 _2_ MAC  --- 0 ACRQ 8 [0 0 0 0] 
r 0.074286441 _4_ MAC  --- 0 ACRQ 21 [0 0 0 0] 
r 0.074286442 _4_ MAC  --- 0 ACRQ 8 [0 0 0 0] 
s 0.077545395 _3_ MAC  --- 0 ACRQ 21 [0 0 0 0] 
s 0.077545395 _3_ MAC  --- 0 ACRQ 8 [0 0 0 0] 
s 0.079194326 _2_ MAC  --- 0 ACRQ 21 [0 0 0 0] 
s 0.079194326 _2_ MAC  --- 0 ACRQ 8 [0 0 0 0] 
r 0.079286441 _4_ MAC  --- 0 ACRQ 21 [0 0 0 0] 
r 0.079286442 _4_ MAC  --- 0 ACRQ 8 [0 0 0 0] 
s 0.082545395 _3_ MAC  --- 0 ACRQ 21 [0 0 0 0] 
s 0.082545395 _3_ MAC  --- 0 ACRQ 8 [0 0 0 0] 
s 0.084194326 _2_ MAC  --- 0 ACRQ 21 [0 0 0 0] 
s 0.084194326 _2_ MAC  --- 0 ACRQ 8 [0 0 0 0] 
r 0.084286441 _4_ MAC  --- 0 ACRQ 21 [0 0 0 0] 
r 0.084286442 _4_ MAC  --- 0 ACRQ 8 [0 0 0 0] 
s 0.087545395 _3_ MAC  --- 0 ACRQ 21 [0 0 0 0] 
s 0.087545395 _3_ MAC  --- 0 ACRQ 8 [0 0 0 0] 
s 0.089194326 _2_ MAC  --- 0 ACRQ 21 [0 0 0 0] 
s 0.089194326 _2_ MAC  --- 0 ACRQ 8 [0 0 0 0] 
r 0.089286441 _4_ MAC  --- 0 ACRQ 21 [0 0 0 0] 
r 0.089286442 _4_ MAC  --- 0 ACRQ 8 [0 0 0 0] 
s 0.092545395 _3_ MAC  --- 0 ACRQ 21 [0 0 0 0] 
s 0.092545395 _3_ MAC  --- 0 ACRQ 8 [0 0 0 0] 
s 0.094194326 _2_ MAC  --- 0 ACRQ 21 [0 0 0 0] 
s 0.094194326 _2_ MAC  --- 0 ACRQ 8 [0 0 0 0] 
r 0.094286441 _4_ MAC  --- 0 ACRQ 21 [0 0 0 0] 
r 0.094286442 _4_ MAC  --- 0 ACRQ 8 [0 0 0 0] 
s 0.097545395 _3_ MAC  --- 0 ACRQ 21 [0 0 0 0] 
s 0.097545395 _3_ MAC  --- 0 ACRQ 8 [0 0 0 0] 
s 0.099194326 _2_ MAC  --- 0 ACRQ 21 [0 0 0 0] 
s 0.099194326 _2_ MAC  --- 0 ACRQ 8 [0 0 0 0] 
r 0.099286441 _4_ MAC  --- 0 ACRQ 21 [0 0 0 0] 
r 0.099286442 _4_ MAC  --- 0 ACRQ 8 [0 0 0 0] 
s 0.102545395 _3_ MAC  --- 0 ACRQ 21 [0 0 0 0] 
s 0.102545395 _3_ MAC  --- 0 ACRQ 8 [0 0 0 0] 
s 0.104194326 _2_ MAC  --- 0 ACRQ 21 [0 0 0 0] 
s 0.104194326 _2_ MAC  --- 0 ACRQ 8 [0 0 0 0] 
r 0.104286441 _4_ MAC  --- 0 ACRQ 21 [0 0 0 0] 
r 0.104286442 _4_ MAC  --- 0 ACRQ 8 [0 0 0 0] 
s 0.107545395 _3_ MAC  --- 0 ACRQ 21 [0 0 0 0] 
s 0.107545395 _3_ MAC  --- 0 ACRQ 8 [0 0 0 0] 
s 0.109194326 _2_ MAC  --- 0 ACRQ 21 [0 0 0 0] 
s 0.109194326 _2_ MAC  --- 0 ACRQ 8 [0 0 0 0] 
r 0.109286441 _4_ MAC  --- 0 ACRQ 21 [0 0 0 0] 
r 0.109286442 _4_ MAC  --- 0 ACRQ 8 [0 0 0 0] 
s 0.112545395 _3_ MAC  --- 0 ACRQ 21 [0 0 0 0] 
s 0.112545395 _3_ MAC  --- 0 ACRQ 8 [0 0 0 0] 
s 0.114194326 _2_ MAC  --- 0 ACRQ 21 [0 0 0 0] 
s 0.114194326 _2_ MAC  --- 0 ACRQ 8 [0 0 0 0] 
r 0.114286441 _4_ MAC  --- 0 ACRQ 21 [0 0 0 0] 
r 0.114286442 _4_ MAC  --- 0 ACRQ 8 [0 0 0 0] 
s 0.117545395 _3_ MAC  --- 0 ACRQ 21 [0 0 0 0] 
s 0.117545395 _3_ MAC  --- 0 ACRQ 8 [0 0 0 0] 
s 0.119194326 _2_ MAC  --- 0 ACRQ 21 [0 0 0 0] 
s 0.119194326 _2_ MAC  --- 0 ACRQ 8 [0 0 0 0] 
r 0.119286441 _4_ MAC  --- 0 ACRQ 21 [0 0 0 0] 
r 0.119286442 _4_ MAC  --- 0 ACRQ 8 [0 0 0 0] 
s 0.122545395 _3_ MAC  --- 0 ACRQ 21 [0 0 0 0] 
s 0.122545395 _3_ MAC  --- 0 ACRQ 8 [0 0 0 0] 
s 0.124194326 _2_ MAC  --- 0 ACRQ 21 [0 0 0 0] 
s 0.124194326 _2_ MAC  --- 0 ACRQ 8 [0 0 0 0] 
r 0.124286441 _4_ MAC  --- 0 ACRQ 21 [0 0 0 0] 
r 0.124286442 _4_ MAC  --- 0 ACRQ 8 [0 0 0 0] 
s 0.127545395 _3_ MAC  --- 0 ACRQ 21 [0 0 0 0] 
s 0.127545395 _3_ MAC  --- 0 ACRQ 8 [0 0 0 0] 
s 0.129194326 _2_ MAC  --- 0 ACRQ 21 [0 0 0 0] 
s 0.129194326 _2_ MAC  --- 0 ACRQ 8 [0 0 0 0] 
r 0.129286441 _4_ MAC  --- 0 ACRQ 21 [0 0 0 0] 
r 0.129286442 _4_ MAC  --- 0 ACRQ 8 [0 0 0 0] 
s 0.132545395 _3_ MAC  --- 0 ACRQ 21 [0 0 0 0] 
s 0.132545395 _3_ MAC  --- 0 ACRQ 8 [0 0 0 0] 
s 0.134194326 _2_ MAC  --- 0 ACRQ 21 [0 0 0 0] 
s 0.134194326 _2_ MAC  --- 0 ACRQ 8 [0 0 0 0] 
r 0.134286441 _4_ MAC  --- 0 ACRQ 21 [0 0 0 0] 
r 0.134286442 _4_ MAC  --- 0 ACRQ 8 [0 0 0 0] 
s 0.137545395 _3_ MAC  --- 0 ACRQ 21 [0 0 0 0] 
s 0.137545395 _3_ MAC  --- 0 ACRQ 8 [0 0 0 0] 
s 0.139194326 _2_ MAC  --- 0 ACRQ 21 [0 0 0 0] 
s 0.139194326 _2_ MAC  --- 0 ACRQ 8 [0 0 0 0] 
r 0.139286441 _4_ MAC  --- 0 ACRQ 21 [0 0 0 0] 
r 0.139286442 _4_ MAC  --- 0 ACRQ 8 [0 0 0 0] 
s 0.142545395 _3_ MAC  --- 0 ACRQ 21 [0 0 0 0] 
s 0.142545395 _3_ MAC  --- 0 ACRQ 8 [0 0 0 0] 
s 0.144194326 _2_ MAC  --- 0 ACRQ 21 [0 0 0 0] 
s 0.144194326 _2_ MAC  --- 0 ACRQ 8 [0 0 0 0] 
r 0.144286441 _4_ MAC  --- 0 ACRQ 21 [0 0 0 0] 
r 0.144286442 _4_ MAC  --- 0 ACRQ 8 [0 0 0 0] 
s 0.147545395 _3_ MAC  --- 0 ACRQ 21 [0 0 0 0] 
s 0.147545395 _3_ MAC  --- 0 ACRQ 8 [0 0 0 0] 
s 0.149194326 _2_ MAC  --- 0 ACRQ 21 [0 0 0 0] 
s 0.149194326 _2_ MAC  --- 0 ACRQ 8 [0 0 0 0] 
r 0.149286441 _4_ MAC  --- 0 ACRQ 21 [0 0 0 0] 
r 0.149286442 _4_ MAC  --- 0 ACRQ 8 [0 0 0 0] 
s 0.152545395 _3_ MAC  --- 0 ACRQ 21 [0 0 0 0] 
s 0.152545395 _3_ MAC  --- 0 ACRQ 8 [0 0 0 0] 
s 0.154194326 _2_ MAC  --- 0 ACRQ 21 [0 0 0 0] 
s 0.154194326 _2_ MAC  --- 0 ACRQ 8 [0 0 0 0] 
r 0.154286441 _4_ MAC  --- 0 ACRQ 21 [0 0 0 0] 
r 0.154286442 _4_ MAC  --- 0 ACRQ 8 [0 0 0 0] 
s 0.157545395 _3_ MAC  --- 0 ACRQ 21 [0 0 0 0] 
s 0.157545395 _3_ MAC  --- 0 ACRQ 8 [0 0 0 0] 
s 0.159194326 _2_ MAC  --- 0 ACRQ 21 [0 0 0 0] 
s 0.159194326 _2_ MAC  --- 0 ACRQ 8 [0 0 0 0] 
r 0.159286441 _4_ MAC  --- 0 ACRQ 21 [0 0 0 0] 
r 0.159286442 _4_ MAC  --- 0 ACRQ 8 [0 0 0 0] 
s 0.162545395 _3_ MAC  --- 0 ACRQ 21 [0 0 0 0] 
s 0.162545395 _3_ MAC  --- 0 ACRQ 8 [0 0 0 0] 
s 0.164194326 _2_ MAC  --- 0 ACRQ 21 [0 0 0 0] 
s 0.164194326 _2_ MAC  --- 0 ACRQ 8 [0 0 0 0] 
r 0.164286441 _4_ MAC  --- 0 ACRQ 21 [0 0 0 0] 
r 0.164286442 _4_ MAC  --- 0 ACRQ 8 [0 0 0 0] 
s 0.167545395 _3_ MAC  --- 0 ACRQ 21 [0 0 0 0] 
s 0.167545395 _3_ MAC  --- 0 ACRQ 8 [0 0 0 0] 
s 0.169194326 _2_ MAC  --- 0 ACRQ 21 [0 0 0 0] 
s 0.169194326 _2_ MAC  --- 0 ACRQ 8 [0 0 0 0] 
r 0.169286441 _4_ MAC  --- 0 ACRQ 21 [0 0 0 0] 
r 0.169286442 _4_ MAC  --- 0 ACRQ 8 [0 0 0 0] 
s 0.172545395 _3_ MAC  --- 0 ACRQ 21 [0 0 0 0] 
s 0.172545395 _3_ MAC  --- 0 ACRQ 8 [0 0 0 0] 
s 0.174194326 _2_ MAC  --- 0 ACRQ 21 [0 0 0 0] 
s 0.174194326 _2_ MAC  --- 0 ACRQ 8 [0 0 0 0] 
r 0.174286441 _4_ MAC  --- 0 ACRQ 21 [0 0 0 0] 
r 0.174286442 _4_ MAC  --- 0 ACRQ 8 [0 0 0 0] 
s 0.177545395 _3_ MAC  --- 0 ACRQ 21 [0 0 0 0] 
s 0.177545395 _3_ MAC  --- 0 ACRQ 8 [0 0 0 0] 
s 0.179194326 _2_ MAC  --- 0 ACRQ 21 [0 0 0 0] 
s 0.179194326 _2_ MAC  --- 0 ACRQ 8 [0 0 0 0] 
r 0.179286441 _4_ MAC  --- 0 ACRQ 21 [0 0 0 0] 
r 0.179286442 _4_ MAC  --- 0 ACRQ 8 [0 0 0 0] 
s 0.182545395 _3_ MAC  --- 0 ACRQ 21 [0 0 0 0] 
s 0.182545395 _3_ MAC  --- 0 ACRQ 8 [0 0 0 0] 
s 0.184194326 _2_ MAC  --- 0 ACRQ 21 [0 0 0 0] 
s 0.184194326 _2_ MAC  --- 0 ACRQ 8 [0 0 0 0] 
r 0.184286441 _4_ MAC  --- 0 ACRQ 21 [0 0 0 0] 
r 0.184286442 _4_ MAC  --- 0 ACRQ 8 [0 0 0 0] 
s 0.187545395 _3_ MAC  --- 0 ACRQ 21 [0 0 0 0] 
s 0.187545395 _3_ MAC  --- 0 ACRQ 8 [0 0 0 0] 
s 0.189194326 _2_ MAC  --- 0 ACRQ 21 [0 0 0 0] 
s 0.189194326 _2_ MAC  --- 0 ACRQ 8 [0 0 0 0] 
r 0.189286441 _4_ MAC  --- 0 ACRQ 21 [0 0 0 0] 
r 0.189286442 _4_ MAC  --- 0 ACRQ 8 [0 0 0 0] 
s 0.192545395 _3_ MAC  --- 0 ACRQ 21 [0 0 0 0] 
s 0.192545395 _3_ MAC  --- 0 ACRQ 8 [0 0 0 0] 
s 0.194194326 _2_ MAC  --- 0 ACRQ 21 [0 0 0 0] 
s 0.194194326 _2_ MAC  --- 0 ACRQ 8 [0 0 0 0] 
r 0.194286441 _4_ MAC  --- 0 ACRQ 21 [0 0 0 0] 
r 0.194286442 _4_ MAC  --- 0 ACRQ 8 [0 0 0 0] 
s 0.197545395 _3_ MAC  --- 0 ACRQ 21 [0 0 0 0] 
s 0.197545395 _3_ MAC  --- 0 ACRQ 8 [0 0 0 0] 
s 0.199194326 _2_ MAC  --- 0 ACRQ 21 [0 0 0 0] 
s 0.199194326 _2_ MAC  --- 0 ACRQ 8 [0 0 0 0] 
r 0.199286441 _4_ MAC  --- 0 ACRQ 21 [0 0 0 0] 
r 0.199286442 _4_ MAC  --- 0 ACRQ 8 [0 0 0 0] 
s 0.202545395 _3_ MAC  --- 0 ACRQ 21 [0 0 0 0] 
s 0.202545395 _3_ MAC  --- 0 ACRQ 8 [0 0 0 0] 
s 0.204194326 _2_ MAC  --- 0 ACRQ 21 [0 0 0 0] 
s 0.204194326 _2_ MAC  --- 0 ACRQ 8 [0 0 0 0] 
r 0.204286441 _4_ MAC  --- 0 ACRQ 21 [0 0 0 0] 
r 0.204286442 _4_ MAC  --- 0 ACRQ 8 [0 0 0 0] 
s 0.207545395 _3_ MAC  --- 0 ACRQ 21 [0 0 0 0] 
s 0.207545395 _3_ MAC  --- 0 ACRQ 8 [0 0 0 0] 
s 0.209194326 _2_ MAC  --- 0 ACRQ 21 [0 0 0 0] 
s 0.209194326 _2_ MAC  --- 0 ACRQ 8 [0 0 0 0] 
r 0.209286441 _4_ MAC  --- 0 ACRQ 21 [0 0 0 0] 
r 0.209286442 _4_ MAC  --- 0 ACRQ 8 [0 0 0 0] 
s 0.212545395 _3_ MAC  --- 0 ACRQ 21 [0 0 0 0] 
s 0.212545395 _3_ MAC  --- 0 ACRQ 8 [0 0 0 0] 
s 0.214194326 _2_ MAC  --- 0 ACRQ 21 [0 0 0 0] 
s 0.214194326 _2_ MAC  --- 0 ACRQ 8 [0 0 0 0] 
r 0.214286441 _4_ MAC  --- 0 ACRQ 21 [0 0 0 0] 
r 0.214286442 _4_ MAC  --- 0 ACRQ 8 [0 0 0 0] 
s 0.217545395 _3_ MAC  --- 0 ACRQ 21 [0 0 0 0] 
s 0.217545395 _3_ MAC  --- 0 ACRQ 8 [0 0 0 0] 
s 0.219194326 _2_ MAC  --- 0 ACRQ 21 [0 0 0 0] 
s 0.219194326 _2_ MAC  --- 0 ACRQ 8 [0 0 0 0] 
r 0.219286441 _4_ MAC  --- 0 ACRQ 21 [0 0 0 0] 
r 0.219286442 _4_ MAC  --- 0 ACRQ 8 [0 0 0 0] 
s 0.222545395 _3_ MAC  --- 0 ACRQ 21 [0 0 0 0] 
s 0.222545395 _3_ MAC  --- 0 ACRQ 8 [0 0 0 0] 
s 0.224194326 _2_ MAC  --- 0 ACRQ 21 [0 0 0 0] 
s 0.224194326 _2_ MAC  --- 0 ACRQ 8 [0 0 0 0] 
r 0.224286441 _4_ MAC  --- 0 ACRQ 21 [0 0 0 0] 
r 0.224286442 _4_ MAC  --- 0 ACRQ 8 [0 0 0 0] 
s 0.227545395 _3_ MAC  --- 0 ACRQ 21 [0 0 0 0] 
s 0.227545395 _3_ MAC  --- 0 ACRQ 8 [0 0 0 0] 
s 0.229194326 _2_ MAC  --- 0 ACRQ 21 [0 0 0 0] 
s 0.229194326 _2_ MAC  --- 0 ACRQ 8 [0 0 0 0] 
r 0.229286441 _4_ MAC  --- 0 ACRQ 21 [0 0 0 0] 
r 0.229286442 _4_ MAC  --- 0 ACRQ 8 [0 0 0 0] 
s 0.232545395 _3_ MAC  --- 0 ACRQ 21 [0 0 0 0] 
s 0.232545395 _3_ MAC  --- 0 ACRQ 8 [0 0 0 0] 
s 0.234194326 _2_ MAC  --- 0 ACRQ 21 [0 0 0 0] 
s 0.234194326 _2_ MAC  --- 0 ACRQ 8 [0 0 0 0] 
r 0.234286441 _4_ MAC  --- 0 ACRQ 21 [0 0 0 0] 
r 0.234286442 _4_ MAC  --- 0 ACRQ 8 [0 0 0 0] 
s 0.237545395 _3_ MAC  --- 0 ACRQ 21 [0 0 0 0] 
s 0.237545395 _3_ MAC  --- 0 ACRQ 8 [0 0 0 0] 
s 0.239194326 _2_ MAC  --- 0 ACRQ 21 [0 0 0 0] 
s 0.239194326 _2_ MAC  --- 0 ACRQ 8 [0 0 0 0] 
r 0.239286441 _4_ MAC  --- 0 ACRQ 21 [0 0 0 0] 
r 0.239286442 _4_ MAC  --- 0 ACRQ 8 [0 0 0 0] 
s 0.242545395 _3_ MAC  --- 0 ACRQ 21 [0 0 0 0] 
s 0.242545395 _3_ MAC  --- 0 ACRQ 8 [0 0 0 0] 
s 0.244194326 _2_ MAC  --- 0 ACRQ 21 [0 0 0 0] 
s 0.244194326 _2_ MAC  --- 0 ACRQ 8 [0 0 0 0] 
r 0.244286441 _4_ MAC  --- 0 ACRQ 21 [0 0 0 0] 
r 0.244286442 _4_ MAC  --- 0 ACRQ 8 [0 0 0 0] 
s 0.247545395 _3_ MAC  --- 0 ACRQ 21 [0 0 0 0] 
s 0.247545395 _3_ MAC  --- 0 ACRQ 8 [0 0 0 0] 
s 0.249194326 _2_ MAC  --- 0 ACRQ 21 [0 0 0 0] 
s 0.249194326 _2_ MAC  --- 0 ACRQ 8 [0 0 0 0] 
r 0.249286441 _4_ MAC  --- 0 ACRQ 21 [0 0 0 0] 
r 0.249286442 _4_ MAC  --- 0 ACRQ 8 [0 0 0 0] 
s 0.252545395 _3_ MAC  --- 0 ACRQ 21 [0 0 0 0] 
s 0.252545395 _3_ MAC  --- 0 ACRQ 8 [0 0 0 0] 
s 0.254194326 _2_ MAC  --- 0 ACRQ 21 [0 0 0 0] 
s 0.254194326 _2_ MAC  --- 0 ACRQ 8 [0 0 0 0] 
r 0.254286441 _4_ MAC  --- 0 ACRQ 21 [0 0 0 0] 
r 0.254286442 _4_ MAC  --- 0 ACRQ 8 [0 0 0 0] 
s 0.257545395 _3_ MAC  --- 0 ACRQ 21 [0 0 0 0] 
s 0.257545395 _3_ MAC  --- 0 ACRQ 8 [0 0 0 0] 
s 0.259194326 _2_ MAC  --- 0 ACRQ 21 [0 0 0 0] 
s 0.259194326 _2_ MAC  --- 0 ACRQ 8 [0 0 0 0] 
r 0.259286441 _4_ MAC  --- 0 ACRQ 21 [0 0 0 0] 
r 0.259286442 _4_ MAC  --- 0 ACRQ 8 [0 0 0 0] 
s 0.262545395 _3_ MAC  --- 0 ACRQ 21 [0 0 0 0] 
s 0.262545395 _3_ MAC  --- 0 ACRQ 8 [0 0 0 0] 
s 0.264194326 _2_ MAC  --- 0 ACRQ 21 [0 0 0 0] 
s 0.264194326 _2_ MAC  --- 0 ACRQ 8 [0 0 0 0] 
r 0.264286441 _4_ MAC  --- 0 ACRQ 21 [0 0 0 0] 
r 0.264286442 _4_ MAC  --- 0 ACRQ 8 [0 0 0 0] 
s 0.267545395 _3_ MAC  --- 0 ACRQ 21 [0 0 0 0] 
s 0.267545395 _3_ MAC  --- 0 ACRQ 8 [0 0 0 0] 
s 0.269194326 _2_ MAC  --- 0 ACRQ 21 [0 0 0 0] 
s 0.269194326 _2_ MAC  --- 0 ACRQ 8 [0 0 0 0] 
r 0.269286441 _4_ MAC  --- 0 ACRQ 21 [0 0 0 0] 
r 0.269286442 _4_ MAC  --- 0 ACRQ 8 [0 0 0 0] 
s 0.272545395 _3_ MAC  --- 0 ACRQ 21 [0 0 0 0] 
s 0.272545395 _3_ MAC  --- 0 ACRQ 8 [0 0 0 0] 
s 0.274194326 _2_ MAC  --- 0 ACRQ 21 [0 0 0 0] 
s 0.274194326 _2_ MAC  --- 0 ACRQ 8 [0 0 0 0] 
r 0.274286441 _4_ MAC  --- 0 ACRQ 21 [0 0 0 0] 
r 0.274286442 _4_ MAC  --- 0 ACRQ 8 [0 0 0 0] 
s 0.277545395 _3_ MAC  --- 0 ACRQ 21 [0 0 0 0] 
s 0.277545395 _3_ MAC  --- 0 ACRQ 8 [0 0 0 0] 
s 0.277940358 _2_ AGT  --- 3 tcp 0 [0 0 0 0] ------- [8388608:2 12582912:2 32 0] [0 0] 0 0
+ 0.27794 2 1 tcp 0 ------- 0 2.0.0.2 3.0.0.2 0 3
- 0.27794 2 1 tcp 0 ------- 0 2.0.0.2 3.0.0.2 0 3
s 0.279194326 _2_ MAC  --- 0 ACRQ 21 [0 0 0 0] 
s 0.279194326 _2_ MAC  --- 0 ACRQ 8 [0 0 0 0] 
r 0.279286441 _4_ MAC  --- 0 ACRQ 21 [0 0 0 0] 
r 0.279286442 _4_ MAC  --- 0 ACRQ 8 [0 0 0 0] 
r 0.28094 2 1 tcp 0 ------- 0 2.0.0.2 3.0.0.2 0 3
+ 0.28094 1 3 tcp 0 ------- 0 2.0.0.2 3.0.0.2 0 3
- 0.28094 1 3 tcp 0 ------- 0 2.0.0.2 3.0.0.2 0 3
s 0.282545395 _3_ MAC  --- 0 ACRQ 21 [0 0 0 0] 
s 0.282545395 _3_ MAC  --- 0 ACRQ 8 [0 0 0 0] 
r 0.28394 1 3 tcp 0 ------- 0 2.0.0.2 3.0.0.2 0 3
r 0.283940358 _3_ AGT  --- 3 tcp 0 [0 0 0 0] ------- [8388608:2 12582912:2 30 0] [0 0] 0 0
s 0.284194326 _2_ MAC  --- 0 ACRQ 21 [0 0 0 0] 
s 0.284194326 _2_ MAC  --- 0 ACRQ 8 [0 0 0 0] 
r 0.284286441 _4_ MAC  --- 0 ACRQ 21 [0 0 0 0] 
r 0.284286442 _4_ MAC  --- 0 ACRQ 8 [0 0 0 0] 
s 0.287545395 _3_ MAC  --- 0 ACRQ 21 [0 0 0 0] 
s 0.287545395 _3_ MAC  --- 0 ACRQ 8 [0 0 0 0] 
s 0.289194326 _2_ MAC  --- 0 ACRQ 21 [0 0 0 0] 
s 0.289194326 _2_ MAC  --- 0 ACRQ 8 [0 0 0 0] 
r 0.289286441 _4_ MAC  --- 0 ACRQ 21 [0 0 0 0] 
r 0.289286442 _4_ MAC  --- 0 ACRQ 8 [0 0 0 0] 
s 0.292545395 _3_ MAC  --- 0 ACRQ 21 [0 0 0 0] 
s 0.292545395 _3_ MAC  --- 0 ACRQ 8 [0 0 0 0] 
s 0.294194326 _2_ MAC  --- 0 ACRQ 21 [0 0 0 0] 
s 0.294194326 _2_ MAC  --- 0 ACRQ 8 [0 0 0 0] 
r 0.294286441 _4_ MAC  --- 0 ACRQ 21 [0 0 0 0] 
r 0.294286442 _4_ MAC  --- 0 ACRQ 8 [0 0 0 0] 
s 0.297545395 _3_ MAC  --- 0 ACRQ 21 [0 0 0 0] 
s 0.297545395 _3_ MAC  --- 0 ACRQ 8 [0 0 0 0] 
s 0.299194326 _2_ MAC  --- 0 ACRQ 21 [0 0 0 0] 
s 0.299194326 _2_ MAC  --- 0 ACRQ 8 [0 0 0 0] 
r 0.299286441 _4_ MAC  --- 0 ACRQ 21 [0 0 0 0] 
r 0.299286442 _4_ MAC  --- 0 ACRQ 8 [0 0 0 0] 
s 0.302545395 _3_ MAC  --- 0 ACRQ 21 [0 0 0 0] 
s 0.302545395 _3_ MAC  --- 0 ACRQ 8 [0 0 0 0] 
s 0.304194326 _2_ MAC  --- 0 ACRQ 21 [0 0 0 0] 
s 0.304194326 _2_ MAC  --- 0 ACRQ 8 [0 0 0 0] 
r 0.304286441 _4_ MAC  --- 0 ACRQ 21 [0 0 0 0] 
r 0.304286442 _4_ MAC  --- 0 ACRQ 8 [0 0 0 0] 
s 0.307545395 _3_ MAC  --- 0 ACRQ 21 [0 0 0 0] 
s 0.307545395 _3_ MAC  --- 0 ACRQ 8 [0 0 0 0] 
s 0.309194326 _2_ MAC  --- 0 ACRQ 21 [0 0 0 0] 
s 0.309194326 _2_ MAC  --- 0 ACRQ 8 [0 0 0 0] 
r 0.309286441 _4_ MAC  --- 0 ACRQ 21 [0 0 0 0] 
r 0.309286442 _4_ MAC  --- 0 ACRQ 8 [0 0 0 0] 
s 0.312545395 _3_ MAC  --- 0 ACRQ 21 [0 0 0 0] 
s 0.312545395 _3_ MAC  --- 0 ACRQ 8 [0 0 0 0] 
s 0.314194326 _2_ MAC  --- 0 ACRQ 21 [0 0 0 0] 
s 0.314194326 _2_ MAC  --- 0 ACRQ 8 [0 0 0 0] 
r 0.314286441 _4_ MAC  --- 0 ACRQ 21 [0 0 0 0] 
r 0.314286442 _4_ MAC  --- 0 ACRQ 8 [0 0 0 0] 
s 0.317545395 _3_ MAC  --- 0 ACRQ 21 [0 0 0 0] 
s 0.317545395 _3_ MAC  --- 0 ACRQ 8 [0 0 0 0] 
s 0.319194326 _2_ MAC  --- 0 ACRQ 21 [0 0 0 0] 
s 0.319194326 _2_ MAC  --- 0 ACRQ 8 [0 0 0 0] 
r 0.319286441 _4_ MAC  --- 0 ACRQ 21 [0 0 0 0] 
r 0.319286442 _4_ MAC  --- 0 ACRQ 8 [0 0 0 0] 
s 0.322545395 _3_ MAC  --- 0 ACRQ 21 [0 0 0 0] 
s 0.322545395 _3_ MAC  --- 0 ACRQ 8 [0 0 0 0] 
s 0.324194326 _2_ MAC  --- 0 ACRQ 21 [0 0 0 0] 
s 0.324194326 _2_ MAC  --- 0 ACRQ 8 [0 0 0 0] 
r 0.324286441 _4_ MAC  --- 0 ACRQ 21 [0 0 0 0] 
r 0.324286442 _4_ MAC  --- 0 ACRQ 8 [0 0 0 0] 
s 0.327545395 _3_ MAC  --- 0 ACRQ 21 [0 0 0 0] 
s 0.327545395 _3_ MAC  --- 0 ACRQ 8 [0 0 0 0] 
s 0.329194326 _2_ MAC  --- 0 ACRQ 21 [0 0 0 0] 
s 0.329194326 _2_ MAC  --- 0 ACRQ 8 [0 0 0 0] 
r 0.329286441 _4_ MAC  --- 0 ACRQ 21 [0 0 0 0] 
r 0.329286442 _4_ MAC  --- 0 ACRQ 8 [0 0 0 0] 
s 0.332545395 _3_ MAC  --- 0 ACRQ 21 [0 0 0 0] 
s 0.332545395 _3_ MAC  --- 0 ACRQ 8 [0 0 0 0] 
s 0.334194326 _2_ MAC  --- 0 ACRQ 21 [0 0 0 0] 
s 0.334194326 _2_ MAC  --- 0 ACRQ 8 [0 0 0 0] 
r 0.334286441 _4_ MAC  --- 0 ACRQ 21 [0 0 0 0] 
r 0.334286442 _4_ MAC  --- 0 ACRQ 8 [0 0 0 0] 
s 0.337545395 _3_ MAC  --- 0 ACRQ 21 [0 0 0 0] 
s 0.337545395 _3_ MAC  --- 0 ACRQ 8 [0 0 0 0] 
s 0.339194326 _2_ MAC  --- 0 ACRQ 21 [0 0 0 0] 
s 0.339194326 _2_ MAC  --- 0 ACRQ 8 [0 0 0 0] 
r 0.339286441 _4_ MAC  --- 0 ACRQ 21 [0 0 0 0] 
r 0.339286442 _4_ MAC  --- 0 ACRQ 8 [0 0 0 0] 
s 0.342545395 _3_ MAC  --- 0 ACRQ 21 [0 0 0 0] 
s 0.342545395 _3_ MAC  --- 0 ACRQ 8 [0 0 0 0] 
s 0.344194326 _2_ MAC  --- 0 ACRQ 21 [0 0 0 0] 
s 0.344194326 _2_ MAC  --- 0 ACRQ 8 [0 0 0 0] 
r 0.344286441 _4_ MAC  --- 0 ACRQ 21 [0 0 0 0] 
r 0.344286442 _4_ MAC  --- 0 ACRQ 8 [0 0 0 0] 
s 0.347545395 _3_ MAC  --- 0 ACRQ 21 [0 0 0 0] 
s 0.347545395 _3_ MAC  --- 0 ACRQ 8 [0 0 0 0] 
s 0.349194326 _2_ MAC  --- 0 ACRQ 21 [0 0 0 0] 
s 0.349194326 _2_ MAC  --- 0 ACRQ 8 [0 0 0 0] 
r 0.349286441 _4_ MAC  --- 0 ACRQ 21 [0 0 0 0] 
r 0.349286442 _4_ MAC  --- 0 ACRQ 8 [0 0 0 0] 
s 0.352545395 _3_ MAC  --- 0 ACRQ 21 [0 0 0 0] 
s 0.352545395 _3_ MAC  --- 0 ACRQ 8 [0 0 0 0] 
s 0.354194326 _2_ MAC  --- 0 ACRQ 21 [0 0 0 0] 
s 0.354194326 _2_ MAC  --- 0 ACRQ 8 [0 0 0 0] 
r 0.354286441 _4_ MAC  --- 0 ACRQ 21 [0 0 0 0] 
r 0.354286442 _4_ MAC  --- 0 ACRQ 8 [0 0 0 0] 
s 0.357545395 _3_ MAC  --- 0 ACRQ 21 [0 0 0 0] 
s 0.357545395 _3_ MAC  --- 0 ACRQ 8 [0 0 0 0] 
s 0.359194326 _2_ MAC  --- 0 ACRQ 21 [0 0 0 0] 
s 0.359194326 _2_ MAC  --- 0 ACRQ 8 [0 0 0 0] 
r 0.359286441 _4_ MAC  --- 0 ACRQ 21 [0 0 0 0] 
r 0.359286442 _4_ MAC  --- 0 ACRQ 8 [0 0 0 0] 
s 0.362545395 _3_ MAC  --- 0 ACRQ 21 [0 0 0 0] 
s 0.362545395 _3_ MAC  --- 0 ACRQ 8 [0 0 0 0] 
s 0.364194326 _2_ MAC  --- 0 ACRQ 21 [0 0 0 0] 
s 0.364194326 _2_ MAC  --- 0 ACRQ 8 [0 0 0 0] 
r 0.364286441 _4_ MAC  --- 0 ACRQ 21 [0 0 0 0] 
r 0.364286442 _4_ MAC  --- 0 ACRQ 8 [0 0 0 0] 
s 0.367545395 _3_ MAC  --- 0 ACRQ 21 [0 0 0 0] 
s 0.367545395 _3_ MAC  --- 0 ACRQ 8 [0 0 0 0] 
s 0.369194326 _2_ MAC  --- 0 ACRQ 21 [0 0 0 0] 
s 0.369194326 _2_ MAC  --- 0 ACRQ 8 [0 0 0 0] 
r 0.369286441 _4_ MAC  --- 0 ACRQ 21 [0 0 0 0] 
r 0.369286442 _4_ MAC  --- 0 ACRQ 8 [0 0 0 0] 
s 0.372545395 _3_ MAC  --- 0 ACRQ 21 [0 0 0 0] 
s 0.372545395 _3_ MAC  --- 0 ACRQ 8 [0 0 0 0] 
s 0.374194326 _2_ MAC  --- 0 ACRQ 21 [0 0 0 0] 
s 0.374194326 _2_ MAC  --- 0 ACRQ 8 [0 0 0 0] 
r 0.374286441 _4_ MAC  --- 0 ACRQ 21 [0 0 0 0] 
r 0.374286442 _4_ MAC  --- 0 ACRQ 8 [0 0 0 0] 
s 0.377545395 _3_ MAC  --- 0 ACRQ 21 [0 0 0 0] 
s 0.377545395 _3_ MAC  --- 0 ACRQ 8 [0 0 0 0] 
s 0.379194326 _2_ MAC  --- 0 ACRQ 21 [0 0 0 0] 
s 0.379194326 _2_ MAC  --- 0 ACRQ 8 [0 0 0 0] 
r 0.379286441 _4_ MAC  --- 0 ACRQ 21 [0 0 0 0] 
r 0.379286442 _4_ MAC  --- 0 ACRQ 8 [0 0 0 0] 
s 0.382545395 _3_ MAC  --- 0 ACRQ 21 [0 0 0 0] 
s 0.382545395 _3_ MAC  --- 0 ACRQ 8 [0 0 0 0] 
s 0.384194326 _2_ MAC  --- 0 ACRQ 21 [0 0 0 0] 
s 0.384194326 _2_ MAC  --- 0 ACRQ 8 [0 0 0 0] 
r 0.384286441 _4_ MAC  --- 0 ACRQ 21 [0 0 0 0] 
r 0.384286442 _4_ MAC  --- 0 ACRQ 8 [0 0 0 0] 
s 0.387545395 _3_ MAC  --- 0 ACRQ 21 [0 0 0 0] 
s 0.387545395 _3_ MAC  --- 0 ACRQ 8 [0 0 0 0] 
s 0.389194326 _2_ MAC  --- 0 ACRQ 21 [0 0 0 0] 
s 0.389194326 _2_ MAC  --- 0 ACRQ 8 [0 0 0 0] 
r 0.389286441 _4_ MAC  --- 0 ACRQ 21 [0 0 0 0] 
r 0.389286442 _4_ MAC  --- 0 ACRQ 8 [0 0 0 0] 
s 0.392545395 _3_ MAC  --- 0 ACRQ 21 [0 0 0 0] 
s 0.392545395 _3_ MAC  --- 0 ACRQ 8 [0 0 0 0] 
s 0.394194326 _2_ MAC  --- 0 ACRQ 21 [0 0 0 0] 
s 0.394194326 _2_ MAC  --- 0 ACRQ 8 [0 0 0 0] 
r 0.394286441 _4_ MAC  --- 0 ACRQ 21 [0 0 0 0] 
r 0.394286442 _4_ MAC  --- 0 ACRQ 8 [0 0 0 0] 
s 0.397545395 _3_ MAC  --- 0 ACRQ 21 [0 0 0 0] 
s 0.397545395 _3_ MAC  --- 0 ACRQ 8 [0 0 0 0] 
s 0.399194326 _2_ MAC  --- 0 ACRQ 21 [0 0 0 0] 
s 0.399194326 _2_ MAC  --- 0 ACRQ 8 [0 0 0 0] 
r 0.399286441 _4_ MAC  --- 0 ACRQ 21 [0 0 0 0] 
r 0.399286442 _4_ MAC  --- 0 ACRQ 8 [0 0 0 0] 
s 0.402545395 _3_ MAC  --- 0 ACRQ 21 [0 0 0 0] 
s 0.402545395 _3_ MAC  --- 0 ACRQ 8 [0 0 0 0] 
s 0.404194326 _2_ MAC  --- 0 ACRQ 21 [0 0 0 0] 
s 0.404194326 _2_ MAC  --- 0 ACRQ 8 [0 0 0 0] 
r 0.404286441 _4_ MAC  --- 0 ACRQ 21 [0 0 0 0] 
r 0.404286442 _4_ MAC  --- 0 ACRQ 8 [0 0 0 0] 
s 0.407545395 _3_ MAC  --- 0 ACRQ 21 [0 0 0 0] 
s 0.407545395 _3_ MAC  --- 0 ACRQ 8 [0 0 0 0] 
s 0.409194326 _2_ MAC  --- 0 ACRQ 21 [0 0 0 0] 
s 0.409194326 _2_ MAC  --- 0 ACRQ 8 [0 0 0 0] 
r 0.409286441 _4_ MAC  --- 0 ACRQ 21 [0 0 0 0] 
r 0.409286442 _4_ MAC  --- 0 ACRQ 8 [0 0 0 0] 
s 0.412545395 _3_ MAC  --- 0 ACRQ 21 [0 0 0 0] 
s 0.412545395 _3_ MAC  --- 0 ACRQ 8 [0 0 0 0] 
s 0.414194326 _2_ MAC  --- 0 ACRQ 21 [0 0 0 0] 
s 0.414194326 _2_ MAC  --- 0 ACRQ 8 [0 0 0 0] 
r 0.414286441 _4_ MAC  --- 0 ACRQ 21 [0 0 0 0] 
r 0.414286442 _4_ MAC  --- 0 ACRQ 8 [0 0 0 0] 
s 0.417545395 _3_ MAC  --- 0 ACRQ 21 [0 0 0 0] 
s 0.417545395 _3_ MAC  --- 0 ACRQ 8 [0 0 0 0] 
s 0.419194326 _2_ MAC  --- 0 ACRQ 21 [0 0 0 0] 
s 0.419194326 _2_ MAC  --- 0 ACRQ 8 [0 0 0 0] 
r 0.419286441 _4_ MAC  --- 0 ACRQ 21 [0 0 0 0] 
r 0.419286442 _4_ MAC  --- 0 ACRQ 8 [0 0 0 0] 
s 0.422545395 _3_ MAC  --- 0 ACRQ 21 [0 0 0 0] 
s 0.422545395 _3_ MAC  --- 0 ACRQ 8 [0 0 0 0] 
s 0.424194326 _2_ MAC  --- 0 ACRQ 21 [0 0 0 0] 
s 0.424194326 _2_ MAC  --- 0 ACRQ 8 [0 0 0 0] 
r 0.424286441 _4_ MAC  --- 0 ACRQ 21 [0 0 0 0] 
r 0.424286442 _4_ MAC  --- 0 ACRQ 8 [0 0 0 0] 
s 0.427545395 _3_ MAC  --- 0 ACRQ 21 [0 0 0 0] 
s 0.427545395 _3_ MAC  --- 0 ACRQ 8 [0 0 0 0] 
s 0.429194326 _2_ MAC  --- 0 ACRQ 21 [0 0 0 0] 
s 0.429194326 _2_ MAC  --- 0 ACRQ 8 [0 0 0 0] 
r 0.429286441 _4_ MAC  --- 0 ACRQ 21 [0 0 0 0] 
r 0.429286442 _4_ MAC  --- 0 ACRQ 8 [0 0 0 0] 
s 0.432545395 _3_ MAC  --- 0 ACRQ 21 [0 0 0 0] 
s 0.432545395 _3_ MAC  --- 0 ACRQ 8 [0 0 0 0] 
s 0.434194326 _2_ MAC  --- 0 ACRQ 21 [0 0 0 0] 
s 0.434194326 _2_ MAC  --- 0 ACRQ 8 [0 0 0 0] 
r 0.434286441 _4_ MAC  --- 0 ACRQ 21 [0 0 0 0] 
r 0.434286442 _4_ MAC  --- 0 ACRQ 8 [0 0 0 0] 
s 0.437545395 _3_ MAC  --- 0 ACRQ 21 [0 0 0 0] 
s 0.437545395 _3_ MAC  --- 0 ACRQ 8 [0 0 0 0] 
s 0.439194326 _2_ MAC  --- 0 ACRQ 21 [0 0 0 0] 
s 0.439194326 _2_ MAC  --- 0 ACRQ 8 [0 0 0 0] 
r 0.439286441 _4_ MAC  --- 0 ACRQ 21 [0 0 0 0] 
r 0.439286442 _4_ MAC  --- 0 ACRQ 8 [0 0 0 0] 
s 0.441173382 _4_ AGT  --- 4 udp 52 [0 0 0 0] ------- [8388609:0 2147483647:0 32 0] 
r 0.441173382 _4_ RTR  --- 4 udp 52 [0 0 0 0] ------- [8388609:0 2147483647:0 32 0] 
s 0.442545395 _3_ MAC  --- 0 ACRQ 21 [0 0 0 0] 
s 0.442545395 _3_ MAC  --- 0 ACRQ 8 [0 0 0 0] 
s 0.444194326 _2_ MAC  --- 0 ACRQ 21 [0 0 0 0] 
s 0.444194326 _2_ MAC  --- 0 ACRQ 8 [0 0 0 0] 
r 0.444286441 _4_ MAC  --- 0 ACRQ 21 [0 0 0 0] 
r 0.444286442 _4_ MAC  --- 0 ACRQ 8 [0 0 0 0] 
s 0.447545395 _3_ MAC  --- 0 ACRQ 21 [0 0 0 0] 
s 0.447545395 _3_ MAC  --- 0 ACRQ 8 [0 0 0 0] 
f 0.447574059 _4_ RTR  --- 4 udp 72 [0 0 0 0] ------- [8388609:0 2147483647:0 32 0] 
D 0.447599059 _4_ MAC  CID 4 udp 72 [0 2000000 ffff0008 0] ------- [8388609:0 2147483647:0 32 0] 
s 0.449194326 _2_ MAC  --- 0 ACRQ 21 [0 0 0 0] 
s 0.449194326 _2_ MAC  --- 0 ACRQ 8 [0 0 0 0] 
r 0.449286441 _4_ MAC  --- 0 ACRQ 21 [0 0 0 0] 
r 0.449286442 _4_ MAC  --- 0 ACRQ 8 [0 0 0 0] 
s 0.452545395 _3_ MAC  --- 0 ACRQ 21 [0 0 0 0] 
s 0.452545395 _3_ MAC  --- 0 ACRQ 8 [0 0 0 0] 
s 0.454194326 _2_ MAC  --- 0 ACRQ 21 [0 0 0 0] 
s 0.454194326 _2_ MAC  --- 0 ACRQ 8 [0 0 0 0] 
r 0.454286441 _4_ MAC  --- 0 ACRQ 21 [0 0 0 0] 
r 0.454286442 _4_ MAC  --- 0 ACRQ 8 [0 0 0 0] 
s 0.457545395 _3_ MAC  --- 0 ACRQ 21 [0 0 0 0] 
s 0.457545395 _3_ MAC  --- 0 ACRQ 8 [0 0 0 0] 
s 0.459194326 _2_ MAC  --- 0 ACRQ 21 [0 0 0 0] 
s 0.459194326 _2_ MAC  --- 0 ACRQ 8 [0 0 0 0] 
r 0.459286441 _4_ MAC  --- 0 ACRQ 21 [0 0 0 0] 
r 0.459286442 _4_ MAC  --- 0 ACRQ 8 [0 0 0 0] 
s 0.462545395 _3_ MAC  --- 0 ACRQ 21 [0 0 0 0] 
s 0.462545395 _3_ MAC  --- 0 ACRQ 8 [0 0 0 0] 
s 0.464194326 _2_ MAC  --- 0 ACRQ 21 [0 0 0 0] 
s 0.464194326 _2_ MAC  --- 0 ACRQ 8 [0 0 0 0] 
r 0.464286441 _4_ MAC  --- 0 ACRQ 21 [0 0 0 0] 
r 0.464286442 _4_ MAC  --- 0 ACRQ 8 [0 0 0 0] 
s 0.467545395 _3_ MAC  --- 0 ACRQ 21 [0 0 0 0] 
s 0.467545395 _3_ MAC  --- 0 ACRQ 8 [0 0 0 0] 
s 0.469194326 _2_ MAC  --- 0 ACRQ 21 [0 0 0 0] 
s 0.469194326 _2_ MAC  --- 0 ACRQ 8 [0 0 0 0] 
r 0.469286441 _4_ MAC  --- 0 ACRQ 21 [0 0 0 0] 
r 0.469286442 _4_ MAC  --- 0 ACRQ 8 [0 0 0 0] 
s 0.472545395 _3_ MAC  --- 0 ACRQ 21 [0 0 0 0] 
s 0.472545395 _3_ MAC  --- 0 ACRQ 8 [0 0 0 0] 
s 0.474194326 _2_ MAC  --- 0 ACRQ 21 [0 0 0 0] 
s 0.474194326 _2_ MAC  --- 0 ACRQ 8 [0 0 0 0] 
r 0.474286441 _4_ MAC  --- 0 ACRQ 21 [0 0 0 0] 
r 0.474286442 _4_ MAC  --- 0 ACRQ 8 [0 0 0 0] 
s 0.477545395 _3_ MAC  --- 0 ACRQ 21 [0 0 0 0] 
s 0.477545395 _3_ MAC  --- 0 ACRQ 8 [0 0 0 0] 
s 0.479194326 _2_ MAC  --- 0 ACRQ 21 [0 0 0 0] 
s 0.479194326 _2_ MAC  --- 0 ACRQ 8 [0 0 0 0] 
r 0.479286441 _4_ MAC  --- 0 ACRQ 21 [0 0 0 0] 
r 0.479286442 _4_ MAC  --- 0 ACRQ 8 [0 0 0 0] 
s 0.482545395 _3_ MAC  --- 0 ACRQ 21 [0 0 0 0] 
s 0.482545395 _3_ MAC  --- 0 ACRQ 8 [0 0 0 0] 
s 0.484194326 _2_ MAC  --- 0 ACRQ 21 [0 0 0 0] 
s 0.484194326 _2_ MAC  --- 0 ACRQ 8 [0 0 0 0] 
r 0.484286441 _4_ MAC  --- 0 ACRQ 21 [0 0 0 0] 
r 0.484286442 _4_ MAC  --- 0 ACRQ 8 [0 0 0 0] 
s 0.487545395 _3_ MAC  --- 0 ACRQ 21 [0 0 0 0] 
s 0.487545395 _3_ MAC  --- 0 ACRQ 8 [0 0 0 0] 
s 0.489194326 _2_ MAC  --- 0 ACRQ 21 [0 0 0 0] 